[ moleculetype ]
; Name nrexcl
KGP	1

[ atoms ]
;	nr	type	resnr	resid	atom	cgnr	charge	mass
	1	BCH	1	KGP	CHB	1	0.000	1.000
	2	BCH	1	KGP	CHB	2	0.000	1.000
	3	BCH	1	KGP	CHB	3	0.000	1.000
	4	BCH	1	KGP	CHB	4	0.000	1.000
	5	BCH	1	KGP	CHB	5	0.000	1.000
	6	ACH	1	KGP	CHA	6	0.000	1.000
	7	ACH	1	KGP	CHA	7	0.000	1.000
	8	BCH	1	KGP	CHB	8	0.000	1.000
	9	ACH	1	KGP	CHA	9	0.000	1.000
	10	BCH	1	KGP	CHB	10	0.000	1.000
	11	BCH	1	KGP	CHB	11	0.000	1.000
	12	ACH	1	KGP	CHA	12	0.000	1.000
	13	BCH	1	KGP	CHB	13	0.000	1.000
	14	BCH	1	KGP	CHB	14	0.000	1.000
	15	BCH	1	KGP	CHB	15	0.000	1.000
	16	BCH	1	KGP	CHB	16	0.000	1.000
	17	BCH	1	KGP	CHB	17	0.000	1.000
	18	BCH	1	KGP	CHB	18	0.000	1.000
	19	BCH	1	KGP	CHB	19	0.000	1.000
	20	BCH	1	KGP	CHB	20	0.000	1.000
	21	BCH	1	KGP	CHB	21	0.000	1.000
	22	BCH	1	KGP	CHB	22	0.000	1.000
	23	BCH	1	KGP	CHB	23	0.000	1.000
	24	BCH	1	KGP	CHB	24	0.000	1.000
	25	BCH	1	KGP	CHB	25	0.000	1.000
	26	BCH	1	KGP	CHB	26	0.000	1.000
	27	BCH	1	KGP	CHB	27	0.000	1.000
	28	BCH	1	KGP	CHB	28	0.000	1.000
	29	BCH	1	KGP	CHB	29	0.000	1.000
	30	BCH	1	KGP	CHB	30	0.000	1.000
	31	BCH	1	KGP	CHB	31	0.000	1.000
	32	BCH	1	KGP	CHB	32	0.000	1.000
	33	BCH	1	KGP	CHB	33	0.000	1.000
	34	BCH	1	KGP	CHB	34	0.000	1.000
	35	BCH	1	KGP	CHB	35	0.000	1.000
	36	BCH	1	KGP	CHB	36	0.000	1.000
	37	BCH	1	KGP	CHB	37	0.000	1.000
	38	BCH	1	KGP	CHB	38	0.000	1.000
	39	BCH	1	KGP	CHB	39	0.000	1.000
	40	BCH	1	KGP	CHB	40	0.000	1.000

[ bonds ]
;	ai	aj	fu	b	kb
	1	2	7	1.500	30.000
	2	3	7	1.500	30.000
	3	4	7	1.500	30.000
	4	5	7	1.500	30.000
	5	6	7	1.500	30.000
	6	7	7	1.500	30.000
	7	8	7	1.500	30.000
	8	9	7	1.500	30.000
	9	10	7	1.500	30.000
	10	11	7	1.500	30.000
	11	12	7	1.500	30.000
	12	13	7	1.500	30.000
	13	14	7	1.500	30.000
	14	15	7	1.500	30.000
	15	16	7	1.500	30.000
	16	17	7	1.500	30.000
	17	18	7	1.500	30.000
	18	19	7	1.500	30.000
	19	20	7	1.500	30.000
	20	21	7	1.500	30.000
	21	22	7	1.500	30.000
	22	23	7	1.500	30.000
	23	24	7	1.500	30.000
	24	25	7	1.500	30.000
	25	26	7	1.500	30.000
	26	27	7	1.500	30.000
	27	28	7	1.500	30.000
	28	29	7	1.500	30.000
	29	30	7	1.500	30.000
	30	31	7	1.500	30.000
	31	32	7	1.500	30.000
	32	33	7	1.500	30.000
	33	34	7	1.500	30.000
	34	35	7	1.500	30.000
	35	36	7	1.500	30.000
	36	37	7	1.500	30.000
	37	38	7	1.500	30.000
	38	39	7	1.500	30.000
	39	40	7	1.500	30.000
