Surface, t= 0.0
2000
    1LJB  SHK      1   3.500   3.500   0.500
    1LJB  SHK      2   4.500   3.500   0.500
    1LJB  SHK      3   5.500   3.500   0.500
    1LJB  SHK      4   6.500   3.500   0.500
    1LJB  SHK      5   7.500   3.500   0.500
    1LJB  SHK      6   8.500   3.500   0.500
    1LJB  SHK      7   9.500   3.500   0.500
    1LJB  SHK      8  10.500   3.500   0.500
    1LJB  SHK      9  11.500   3.500   0.500
    1LJB  SHK     10  12.500   3.500   0.500
    1LJB  SHK     11  13.500   3.500   0.500
    1LJB  SHK     12  14.500   3.500   0.500
    1LJB  SHK     13  15.500   3.500   0.500
    1LJB  SHK     14  16.500   3.500   0.500
    1LJB  SHK     15  17.500   3.500   0.500
    1LJB  SHK     16  18.500   3.500   0.500
    1LJB  SHK     17  19.500   3.500   0.500
    1LJB  SHK     18  20.500   3.500   0.500
    1LJB  SHK     19  21.500   3.500   0.500
    1LJB  SHK     20  22.500   3.500   0.500
    1LJB  SHK     21   4.000   4.366   0.500
    1LJB  SHK     22   5.000   4.366   0.500
    1LJB  SHK     23   6.000   4.366   0.500
    1LJB  SHK     24   7.000   4.366   0.500
    1LJB  SHK     25   8.000   4.366   0.500
    1LJB  SHK     26   9.000   4.366   0.500
    1LJB  SHK     27  10.000   4.366   0.500
    1LJB  SHK     28  11.000   4.366   0.500
    1LJB  SHK     29  12.000   4.366   0.500
    1LJB  SHK     30  13.000   4.366   0.500
    1LJB  SHK     31  14.000   4.366   0.500
    1LJB  SHK     32  15.000   4.366   0.500
    1LJB  SHK     33  16.000   4.366   0.500
    1LJB  SHK     34  17.000   4.366   0.500
    1LJB  SHK     35  18.000   4.366   0.500
    1LJB  SHK     36  19.000   4.366   0.500
    1LJB  SHK     37  20.000   4.366   0.500
    1LJB  SHK     38  21.000   4.366   0.500
    1LJB  SHK     39  22.000   4.366   0.500
    1LJB  SHK     40  23.000   4.366   0.500
    1LJB  SHK     41   3.500   5.232   0.500
    1LJB  SHK     42   4.500   5.232   0.500
    1LJB  SHK     43   5.500   5.232   0.500
    1LJB  SHK     44   6.500   5.232   0.500
    1LJB  SHK     45   7.500   5.232   0.500
    1LJB  SHK     46   8.500   5.232   0.500
    1LJB  SHK     47   9.500   5.232   0.500
    1LJB  SHK     48  10.500   5.232   0.500
    1LJB  SHK     49  11.500   5.232   0.500
    1LJB  SHK     50  12.500   5.232   0.500
    1LJB  SHK     51  13.500   5.232   0.500
    1LJB  SHK     52  14.500   5.232   0.500
    1LJB  SHK     53  15.500   5.232   0.500
    1LJB  SHK     54  16.500   5.232   0.500
    1LJB  SHK     55  17.500   5.232   0.500
    1LJB  SHK     56  18.500   5.232   0.500
    1LJB  SHK     57  19.500   5.232   0.500
    1LJB  SHK     58  20.500   5.232   0.500
    1LJB  SHK     59  21.500   5.232   0.500
    1LJB  SHK     60  22.500   5.232   0.500
    1LJB  SHK     61   4.000   6.098   0.500
    1LJB  SHK     62   5.000   6.098   0.500
    1LJB  SHK     63   6.000   6.098   0.500
    1LJB  SHK     64   7.000   6.098   0.500
    1LJB  SHK     65   8.000   6.098   0.500
    1LJB  SHK     66   9.000   6.098   0.500
    1LJB  SHK     67  10.000   6.098   0.500
    1LJB  SHK     68  11.000   6.098   0.500
    1LJB  SHK     69  12.000   6.098   0.500
    1LJB  SHK     70  13.000   6.098   0.500
    1LJB  SHK     71  14.000   6.098   0.500
    1LJB  SHK     72  15.000   6.098   0.500
    1LJB  SHK     73  16.000   6.098   0.500
    1LJB  SHK     74  17.000   6.098   0.500
    1LJB  SHK     75  18.000   6.098   0.500
    1LJB  SHK     76  19.000   6.098   0.500
    1LJB  SHK     77  20.000   6.098   0.500
    1LJB  SHK     78  21.000   6.098   0.500
    1LJB  SHK     79  22.000   6.098   0.500
    1LJB  SHK     80  23.000   6.098   0.500
    1LJB  SHK     81   3.500   6.964   0.500
    1LJB  SHK     82   4.500   6.964   0.500
    1LJB  SHK     83   5.500   6.964   0.500
    1LJB  SHK     84   6.500   6.964   0.500
    1LJB  SHK     85   7.500   6.964   0.500
    1LJB  SHK     86   8.500   6.964   0.500
    1LJB  SHK     87   9.500   6.964   0.500
    1LJB  SHK     88  10.500   6.964   0.500
    1LJB  SHK     89  11.500   6.964   0.500
    1LJB  SHK     90  12.500   6.964   0.500
    1LJB  SHK     91  13.500   6.964   0.500
    1LJB  SHK     92  14.500   6.964   0.500
    1LJB  SHK     93  15.500   6.964   0.500
    1LJB  SHK     94  16.500   6.964   0.500
    1LJB  SHK     95  17.500   6.964   0.500
    1LJB  SHK     96  18.500   6.964   0.500
    1LJB  SHK     97  19.500   6.964   0.500
    1LJB  SHK     98  20.500   6.964   0.500
    1LJB  SHK     99  21.500   6.964   0.500
    1LJB  SHK    100  22.500   6.964   0.500
    1LJB  SHK    101   4.000   7.830   0.500
    1LJB  SHK    102   5.000   7.830   0.500
    1LJB  SHK    103   6.000   7.830   0.500
    1LJB  SHK    104   7.000   7.830   0.500
    1LJB  SHK    105   8.000   7.830   0.500
    1LJB  SHK    106   9.000   7.830   0.500
    1LJB  SHK    107  10.000   7.830   0.500
    1LJB  SHK    108  11.000   7.830   0.500
    1LJB  SHK    109  12.000   7.830   0.500
    1LJB  SHK    110  13.000   7.830   0.500
    1LJB  SHK    111  14.000   7.830   0.500
    1LJB  SHK    112  15.000   7.830   0.500
    1LJB  SHK    113  16.000   7.830   0.500
    1LJB  SHK    114  17.000   7.830   0.500
    1LJB  SHK    115  18.000   7.830   0.500
    1LJB  SHK    116  19.000   7.830   0.500
    1LJB  SHK    117  20.000   7.830   0.500
    1LJB  SHK    118  21.000   7.830   0.500
    1LJB  SHK    119  22.000   7.830   0.500
    1LJB  SHK    120  23.000   7.830   0.500
    1LJB  SHK    121   3.500   8.696   0.500
    1LJB  SHK    122   4.500   8.696   0.500
    1LJB  SHK    123   5.500   8.696   0.500
    1LJB  SHK    124   6.500   8.696   0.500
    1LJB  SHK    125   7.500   8.696   0.500
    1LJB  SHK    126   8.500   8.696   0.500
    1LJB  SHK    127   9.500   8.696   0.500
    1LJB  SHK    128  10.500   8.696   0.500
    1LJB  SHK    129  11.500   8.696   0.500
    1LJB  SHK    130  12.500   8.696   0.500
    1LJB  SHK    131  13.500   8.696   0.500
    1LJB  SHK    132  14.500   8.696   0.500
    1LJB  SHK    133  15.500   8.696   0.500
    1LJB  SHK    134  16.500   8.696   0.500
    1LJB  SHK    135  17.500   8.696   0.500
    1LJB  SHK    136  18.500   8.696   0.500
    1LJB  SHK    137  19.500   8.696   0.500
    1LJB  SHK    138  20.500   8.696   0.500
    1LJB  SHK    139  21.500   8.696   0.500
    1LJB  SHK    140  22.500   8.696   0.500
    1LJB  SHK    141   4.000   9.562   0.500
    1LJB  SHK    142   5.000   9.562   0.500
    1LJB  SHK    143   6.000   9.562   0.500
    1LJB  SHK    144   7.000   9.562   0.500
    1LJB  SHK    145   8.000   9.562   0.500
    1LJB  SHK    146   9.000   9.562   0.500
    1LJB  SHK    147  10.000   9.562   0.500
    1LJB  SHK    148  11.000   9.562   0.500
    1LJB  SHK    149  12.000   9.562   0.500
    1LJB  SHK    150  13.000   9.562   0.500
    1LJB  SHK    151  14.000   9.562   0.500
    1LJB  SHK    152  15.000   9.562   0.500
    1LJB  SHK    153  16.000   9.562   0.500
    1LJB  SHK    154  17.000   9.562   0.500
    1LJB  SHK    155  18.000   9.562   0.500
    1LJB  SHK    156  19.000   9.562   0.500
    1LJB  SHK    157  20.000   9.562   0.500
    1LJB  SHK    158  21.000   9.562   0.500
    1LJB  SHK    159  22.000   9.562   0.500
    1LJB  SHK    160  23.000   9.562   0.500
    1LJB  SHK    161   3.500  10.428   0.500
    1LJB  SHK    162   4.500  10.428   0.500
    1LJB  SHK    163   5.500  10.428   0.500
    1LJB  SHK    164   6.500  10.428   0.500
    1LJB  SHK    165   7.500  10.428   0.500
    1LJB  SHK    166   8.500  10.428   0.500
    1LJB  SHK    167   9.500  10.428   0.500
    1LJB  SHK    168  10.500  10.428   0.500
    1LJB  SHK    169  11.500  10.428   0.500
    1LJB  SHK    170  12.500  10.428   0.500
    1LJB  SHK    171  13.500  10.428   0.500
    1LJB  SHK    172  14.500  10.428   0.500
    1LJB  SHK    173  15.500  10.428   0.500
    1LJB  SHK    174  16.500  10.428   0.500
    1LJB  SHK    175  17.500  10.428   0.500
    1LJB  SHK    176  18.500  10.428   0.500
    1LJB  SHK    177  19.500  10.428   0.500
    1LJB  SHK    178  20.500  10.428   0.500
    1LJB  SHK    179  21.500  10.428   0.500
    1LJB  SHK    180  22.500  10.428   0.500
    1LJB  SHK    181   4.000  11.294   0.500
    1LJB  SHK    182   5.000  11.294   0.500
    1LJB  SHK    183   6.000  11.294   0.500
    1LJB  SHK    184   7.000  11.294   0.500
    1LJB  SHK    185   8.000  11.294   0.500
    1LJB  SHK    186   9.000  11.294   0.500
    1LJB  SHK    187  10.000  11.294   0.500
    1LJB  SHK    188  11.000  11.294   0.500
    1LJB  SHK    189  12.000  11.294   0.500
    1LJB  SHK    190  13.000  11.294   0.500
    1LJB  SHK    191  14.000  11.294   0.500
    1LJB  SHK    192  15.000  11.294   0.500
    1LJB  SHK    193  16.000  11.294   0.500
    1LJB  SHK    194  17.000  11.294   0.500
    1LJB  SHK    195  18.000  11.294   0.500
    1LJB  SHK    196  19.000  11.294   0.500
    1LJB  SHK    197  20.000  11.294   0.500
    1LJB  SHK    198  21.000  11.294   0.500
    1LJB  SHK    199  22.000  11.294   0.500
    1LJB  SHK    200  23.000  11.294   0.500
    1LJB  SHK    201   3.500  12.160   0.500
    1LJB  SHK    202   4.500  12.160   0.500
    1LJB  SHK    203   5.500  12.160   0.500
    1LJB  SHK    204   6.500  12.160   0.500
    1LJB  SHK    205   7.500  12.160   0.500
    1LJB  SHK    206   8.500  12.160   0.500
    1LJB  SHK    207   9.500  12.160   0.500
    1LJB  SHK    208  10.500  12.160   0.500
    1LJB  SHK    209  11.500  12.160   0.500
    1LJB  SHK    210  12.500  12.160   0.500
    1LJB  SHK    211  13.500  12.160   0.500
    1LJB  SHK    212  14.500  12.160   0.500
    1LJB  SHK    213  15.500  12.160   0.500
    1LJB  SHK    214  16.500  12.160   0.500
    1LJB  SHK    215  17.500  12.160   0.500
    1LJB  SHK    216  18.500  12.160   0.500
    1LJB  SHK    217  19.500  12.160   0.500
    1LJB  SHK    218  20.500  12.160   0.500
    1LJB  SHK    219  21.500  12.160   0.500
    1LJB  SHK    220  22.500  12.160   0.500
    1LJB  SHK    221   4.000  13.026   0.500
    1LJB  SHK    222   5.000  13.026   0.500
    1LJB  SHK    223   6.000  13.026   0.500
    1LJB  SHK    224   7.000  13.026   0.500
    1LJB  SHK    225   8.000  13.026   0.500
    1LJB  SHK    226   9.000  13.026   0.500
    1LJB  SHK    227  10.000  13.026   0.500
    1LJB  SHK    228  11.000  13.026   0.500
    1LJB  SHK    229  12.000  13.026   0.500
    1LJB  SHK    230  13.000  13.026   0.500
    1LJB  SHK    231  14.000  13.026   0.500
    1LJB  SHK    232  15.000  13.026   0.500
    1LJB  SHK    233  16.000  13.026   0.500
    1LJB  SHK    234  17.000  13.026   0.500
    1LJB  SHK    235  18.000  13.026   0.500
    1LJB  SHK    236  19.000  13.026   0.500
    1LJB  SHK    237  20.000  13.026   0.500
    1LJB  SHK    238  21.000  13.026   0.500
    1LJB  SHK    239  22.000  13.026   0.500
    1LJB  SHK    240  23.000  13.026   0.500
    1LJB  SHK    241   3.500  13.892   0.500
    1LJB  SHK    242   4.500  13.892   0.500
    1LJB  SHK    243   5.500  13.892   0.500
    1LJB  SHK    244   6.500  13.892   0.500
    1LJB  SHK    245   7.500  13.892   0.500
    1LJB  SHK    246   8.500  13.892   0.500
    1LJB  SHK    247   9.500  13.892   0.500
    1LJB  SHK    248  10.500  13.892   0.500
    1LJB  SHK    249  11.500  13.892   0.500
    1LJB  SHK    250  12.500  13.892   0.500
    1LJB  SHK    251  13.500  13.892   0.500
    1LJB  SHK    252  14.500  13.892   0.500
    1LJB  SHK    253  15.500  13.892   0.500
    1LJB  SHK    254  16.500  13.892   0.500
    1LJB  SHK    255  17.500  13.892   0.500
    1LJB  SHK    256  18.500  13.892   0.500
    1LJB  SHK    257  19.500  13.892   0.500
    1LJB  SHK    258  20.500  13.892   0.500
    1LJB  SHK    259  21.500  13.892   0.500
    1LJB  SHK    260  22.500  13.892   0.500
    1LJB  SHK    261   4.000  14.758   0.500
    1LJB  SHK    262   5.000  14.758   0.500
    1LJB  SHK    263   6.000  14.758   0.500
    1LJB  SHK    264   7.000  14.758   0.500
    1LJB  SHK    265   8.000  14.758   0.500
    1LJB  SHK    266   9.000  14.758   0.500
    1LJB  SHK    267  10.000  14.758   0.500
    1LJB  SHK    268  11.000  14.758   0.500
    1LJB  SHK    269  12.000  14.758   0.500
    1LJB  SHK    270  13.000  14.758   0.500
    1LJB  SHK    271  14.000  14.758   0.500
    1LJB  SHK    272  15.000  14.758   0.500
    1LJB  SHK    273  16.000  14.758   0.500
    1LJB  SHK    274  17.000  14.758   0.500
    1LJB  SHK    275  18.000  14.758   0.500
    1LJB  SHK    276  19.000  14.758   0.500
    1LJB  SHK    277  20.000  14.758   0.500
    1LJB  SHK    278  21.000  14.758   0.500
    1LJB  SHK    279  22.000  14.758   0.500
    1LJB  SHK    280  23.000  14.758   0.500
    1LJB  SHK    281   3.500  15.624   0.500
    1LJB  SHK    282   4.500  15.624   0.500
    1LJB  SHK    283   5.500  15.624   0.500
    1LJB  SHK    284   6.500  15.624   0.500
    1LJB  SHK    285   7.500  15.624   0.500
    1LJB  SHK    286   8.500  15.624   0.500
    1LJB  SHK    287   9.500  15.624   0.500
    1LJB  SHK    288  10.500  15.624   0.500
    1LJB  SHK    289  11.500  15.624   0.500
    1LJB  SHK    290  12.500  15.624   0.500
    1LJB  SHK    291  13.500  15.624   0.500
    1LJB  SHK    292  14.500  15.624   0.500
    1LJB  SHK    293  15.500  15.624   0.500
    1LJB  SHK    294  16.500  15.624   0.500
    1LJB  SHK    295  17.500  15.624   0.500
    1LJB  SHK    296  18.500  15.624   0.500
    1LJB  SHK    297  19.500  15.624   0.500
    1LJB  SHK    298  20.500  15.624   0.500
    1LJB  SHK    299  21.500  15.624   0.500
    1LJB  SHK    300  22.500  15.624   0.500
    1LJB  SHK    301   4.000  16.490   0.500
    1LJB  SHK    302   5.000  16.490   0.500
    1LJB  SHK    303   6.000  16.490   0.500
    1LJB  SHK    304   7.000  16.490   0.500
    1LJB  SHK    305   8.000  16.490   0.500
    1LJB  SHK    306   9.000  16.490   0.500
    1LJB  SHK    307  10.000  16.490   0.500
    1LJB  SHK    308  11.000  16.490   0.500
    1LJB  SHK    309  12.000  16.490   0.500
    1LJB  SHK    310  13.000  16.490   0.500
    1LJB  SHK    311  14.000  16.490   0.500
    1LJB  SHK    312  15.000  16.490   0.500
    1LJB  SHK    313  16.000  16.490   0.500
    1LJB  SHK    314  17.000  16.490   0.500
    1LJB  SHK    315  18.000  16.490   0.500
    1LJB  SHK    316  19.000  16.490   0.500
    1LJB  SHK    317  20.000  16.490   0.500
    1LJB  SHK    318  21.000  16.490   0.500
    1LJB  SHK    319  22.000  16.490   0.500
    1LJB  SHK    320  23.000  16.490   0.500
    1LJB  SHK    321   3.500  17.356   0.500
    1LJB  SHK    322   4.500  17.356   0.500
    1LJB  SHK    323   5.500  17.356   0.500
    1LJB  SHK    324   6.500  17.356   0.500
    1LJB  SHK    325   7.500  17.356   0.500
    1LJB  SHK    326   8.500  17.356   0.500
    1LJB  SHK    327   9.500  17.356   0.500
    1LJB  SHK    328  10.500  17.356   0.500
    1LJB  SHK    329  11.500  17.356   0.500
    1LJB  SHK    330  12.500  17.356   0.500
    1LJB  SHK    331  13.500  17.356   0.500
    1LJB  SHK    332  14.500  17.356   0.500
    1LJB  SHK    333  15.500  17.356   0.500
    1LJB  SHK    334  16.500  17.356   0.500
    1LJB  SHK    335  17.500  17.356   0.500
    1LJB  SHK    336  18.500  17.356   0.500
    1LJB  SHK    337  19.500  17.356   0.500
    1LJB  SHK    338  20.500  17.356   0.500
    1LJB  SHK    339  21.500  17.356   0.500
    1LJB  SHK    340  22.500  17.356   0.500
    1LJB  SHK    341   4.000  18.222   0.500
    1LJB  SHK    342   5.000  18.222   0.500
    1LJB  SHK    343   6.000  18.222   0.500
    1LJB  SHK    344   7.000  18.222   0.500
    1LJB  SHK    345   8.000  18.222   0.500
    1LJB  SHK    346   9.000  18.222   0.500
    1LJB  SHK    347  10.000  18.222   0.500
    1LJB  SHK    348  11.000  18.222   0.500
    1LJB  SHK    349  12.000  18.222   0.500
    1LJB  SHK    350  13.000  18.222   0.500
    1LJB  SHK    351  14.000  18.222   0.500
    1LJB  SHK    352  15.000  18.222   0.500
    1LJB  SHK    353  16.000  18.222   0.500
    1LJB  SHK    354  17.000  18.222   0.500
    1LJB  SHK    355  18.000  18.222   0.500
    1LJB  SHK    356  19.000  18.222   0.500
    1LJB  SHK    357  20.000  18.222   0.500
    1LJB  SHK    358  21.000  18.222   0.500
    1LJB  SHK    359  22.000  18.222   0.500
    1LJB  SHK    360  23.000  18.222   0.500
    1LJB  SHK    361   3.500  19.088   0.500
    1LJB  SHK    362   4.500  19.088   0.500
    1LJB  SHK    363   5.500  19.088   0.500
    1LJB  SHK    364   6.500  19.088   0.500
    1LJB  SHK    365   7.500  19.088   0.500
    1LJB  SHK    366   8.500  19.088   0.500
    1LJB  SHK    367   9.500  19.088   0.500
    1LJB  SHK    368  10.500  19.088   0.500
    1LJB  SHK    369  11.500  19.088   0.500
    1LJB  SHK    370  12.500  19.088   0.500
    1LJB  SHK    371  13.500  19.088   0.500
    1LJB  SHK    372  14.500  19.088   0.500
    1LJB  SHK    373  15.500  19.088   0.500
    1LJB  SHK    374  16.500  19.088   0.500
    1LJB  SHK    375  17.500  19.088   0.500
    1LJB  SHK    376  18.500  19.088   0.500
    1LJB  SHK    377  19.500  19.088   0.500
    1LJB  SHK    378  20.500  19.088   0.500
    1LJB  SHK    379  21.500  19.088   0.500
    1LJB  SHK    380  22.500  19.088   0.500
    1LJB  SHK    381   4.000  19.954   0.500
    1LJB  SHK    382   5.000  19.954   0.500
    1LJB  SHK    383   6.000  19.954   0.500
    1LJB  SHK    384   7.000  19.954   0.500
    1LJB  SHK    385   8.000  19.954   0.500
    1LJB  SHK    386   9.000  19.954   0.500
    1LJB  SHK    387  10.000  19.954   0.500
    1LJB  SHK    388  11.000  19.954   0.500
    1LJB  SHK    389  12.000  19.954   0.500
    1LJB  SHK    390  13.000  19.954   0.500
    1LJB  SHK    391  14.000  19.954   0.500
    1LJB  SHK    392  15.000  19.954   0.500
    1LJB  SHK    393  16.000  19.954   0.500
    1LJB  SHK    394  17.000  19.954   0.500
    1LJB  SHK    395  18.000  19.954   0.500
    1LJB  SHK    396  19.000  19.954   0.500
    1LJB  SHK    397  20.000  19.954   0.500
    1LJB  SHK    398  21.000  19.954   0.500
    1LJB  SHK    399  22.000  19.954   0.500
    1LJB  SHK    400  23.000  19.954   0.500
    2LJB  SHK    401   4.000   3.789   1.317
    2LJB  SHK    402   5.000   3.789   1.317
    2LJB  SHK    403   6.000   3.789   1.317
    2LJB  SHK    404   7.000   3.789   1.317
    2LJB  SHK    405   8.000   3.789   1.317
    2LJB  SHK    406   9.000   3.789   1.317
    2LJB  SHK    407  10.000   3.789   1.317
    2LJB  SHK    408  11.000   3.789   1.317
    2LJB  SHK    409  12.000   3.789   1.317
    2LJB  SHK    410  13.000   3.789   1.317
    2LJB  SHK    411  14.000   3.789   1.317
    2LJB  SHK    412  15.000   3.789   1.317
    2LJB  SHK    413  16.000   3.789   1.317
    2LJB  SHK    414  17.000   3.789   1.317
    2LJB  SHK    415  18.000   3.789   1.317
    2LJB  SHK    416  19.000   3.789   1.317
    2LJB  SHK    417  20.000   3.789   1.317
    2LJB  SHK    418  21.000   3.789   1.317
    2LJB  SHK    419  22.000   3.789   1.317
    2LJB  SHK    420  23.000   3.789   1.317
    2LJB  SHK    421   4.500   4.655   1.317
    2LJB  SHK    422   5.500   4.655   1.317
    2LJB  SHK    423   6.500   4.655   1.317
    2LJB  SHK    424   7.500   4.655   1.317
    2LJB  SHK    425   8.500   4.655   1.317
    2LJB  SHK    426   9.500   4.655   1.317
    2LJB  SHK    427  10.500   4.655   1.317
    2LJB  SHK    428  11.500   4.655   1.317
    2LJB  SHK    429  12.500   4.655   1.317
    2LJB  SHK    430  13.500   4.655   1.317
    2LJB  SHK    431  14.500   4.655   1.317
    2LJB  SHK    432  15.500   4.655   1.317
    2LJB  SHK    433  16.500   4.655   1.317
    2LJB  SHK    434  17.500   4.655   1.317
    2LJB  SHK    435  18.500   4.655   1.317
    2LJB  SHK    436  19.500   4.655   1.317
    2LJB  SHK    437  20.500   4.655   1.317
    2LJB  SHK    438  21.500   4.655   1.317
    2LJB  SHK    439  22.500   4.655   1.317
    2LJB  SHK    440  23.500   4.655   1.317
    2LJB  SHK    441   4.000   5.521   1.317
    2LJB  SHK    442   5.000   5.521   1.317
    2LJB  SHK    443   6.000   5.521   1.317
    2LJB  SHK    444   7.000   5.521   1.317
    2LJB  SHK    445   8.000   5.521   1.317
    2LJB  SHK    446   9.000   5.521   1.317
    2LJB  SHK    447  10.000   5.521   1.317
    2LJB  SHK    448  11.000   5.521   1.317
    2LJB  SHK    449  12.000   5.521   1.317
    2LJB  SHK    450  13.000   5.521   1.317
    2LJB  SHK    451  14.000   5.521   1.317
    2LJB  SHK    452  15.000   5.521   1.317
    2LJB  SHK    453  16.000   5.521   1.317
    2LJB  SHK    454  17.000   5.521   1.317
    2LJB  SHK    455  18.000   5.521   1.317
    2LJB  SHK    456  19.000   5.521   1.317
    2LJB  SHK    457  20.000   5.521   1.317
    2LJB  SHK    458  21.000   5.521   1.317
    2LJB  SHK    459  22.000   5.521   1.317
    2LJB  SHK    460  23.000   5.521   1.317
    2LJB  SHK    461   4.500   6.387   1.317
    2LJB  SHK    462   5.500   6.387   1.317
    2LJB  SHK    463   6.500   6.387   1.317
    2LJB  SHK    464   7.500   6.387   1.317
    2LJB  SHK    465   8.500   6.387   1.317
    2LJB  SHK    466   9.500   6.387   1.317
    2LJB  SHK    467  10.500   6.387   1.317
    2LJB  SHK    468  11.500   6.387   1.317
    2LJB  SHK    469  12.500   6.387   1.317
    2LJB  SHK    470  13.500   6.387   1.317
    2LJB  SHK    471  14.500   6.387   1.317
    2LJB  SHK    472  15.500   6.387   1.317
    2LJB  SHK    473  16.500   6.387   1.317
    2LJB  SHK    474  17.500   6.387   1.317
    2LJB  SHK    475  18.500   6.387   1.317
    2LJB  SHK    476  19.500   6.387   1.317
    2LJB  SHK    477  20.500   6.387   1.317
    2LJB  SHK    478  21.500   6.387   1.317
    2LJB  SHK    479  22.500   6.387   1.317
    2LJB  SHK    480  23.500   6.387   1.317
    2LJB  SHK    481   4.000   7.253   1.317
    2LJB  SHK    482   5.000   7.253   1.317
    2LJB  SHK    483   6.000   7.253   1.317
    2LJB  SHK    484   7.000   7.253   1.317
    2LJB  SHK    485   8.000   7.253   1.317
    2LJB  SHK    486   9.000   7.253   1.317
    2LJB  SHK    487  10.000   7.253   1.317
    2LJB  SHK    488  11.000   7.253   1.317
    2LJB  SHK    489  12.000   7.253   1.317
    2LJB  SHK    490  13.000   7.253   1.317
    2LJB  SHK    491  14.000   7.253   1.317
    2LJB  SHK    492  15.000   7.253   1.317
    2LJB  SHK    493  16.000   7.253   1.317
    2LJB  SHK    494  17.000   7.253   1.317
    2LJB  SHK    495  18.000   7.253   1.317
    2LJB  SHK    496  19.000   7.253   1.317
    2LJB  SHK    497  20.000   7.253   1.317
    2LJB  SHK    498  21.000   7.253   1.317
    2LJB  SHK    499  22.000   7.253   1.317
    2LJB  SHK    500  23.000   7.253   1.317
    2LJB  SHK    501   4.500   8.119   1.317
    2LJB  SHK    502   5.500   8.119   1.317
    2LJB  SHK    503   6.500   8.119   1.317
    2LJB  SHK    504   7.500   8.119   1.317
    2LJB  SHK    505   8.500   8.119   1.317
    2LJB  SHK    506   9.500   8.119   1.317
    2LJB  SHK    507  10.500   8.119   1.317
    2LJB  SHK    508  11.500   8.119   1.317
    2LJB  SHK    509  12.500   8.119   1.317
    2LJB  SHK    510  13.500   8.119   1.317
    2LJB  SHK    511  14.500   8.119   1.317
    2LJB  SHK    512  15.500   8.119   1.317
    2LJB  SHK    513  16.500   8.119   1.317
    2LJB  SHK    514  17.500   8.119   1.317
    2LJB  SHK    515  18.500   8.119   1.317
    2LJB  SHK    516  19.500   8.119   1.317
    2LJB  SHK    517  20.500   8.119   1.317
    2LJB  SHK    518  21.500   8.119   1.317
    2LJB  SHK    519  22.500   8.119   1.317
    2LJB  SHK    520  23.500   8.119   1.317
    2LJB  SHK    521   4.000   8.985   1.317
    2LJB  SHK    522   5.000   8.985   1.317
    2LJB  SHK    523   6.000   8.985   1.317
    2LJB  SHK    524   7.000   8.985   1.317
    2LJB  SHK    525   8.000   8.985   1.317
    2LJB  SHK    526   9.000   8.985   1.317
    2LJB  SHK    527  10.000   8.985   1.317
    2LJB  SHK    528  11.000   8.985   1.317
    2LJB  SHK    529  12.000   8.985   1.317
    2LJB  SHK    530  13.000   8.985   1.317
    2LJB  SHK    531  14.000   8.985   1.317
    2LJB  SHK    532  15.000   8.985   1.317
    2LJB  SHK    533  16.000   8.985   1.317
    2LJB  SHK    534  17.000   8.985   1.317
    2LJB  SHK    535  18.000   8.985   1.317
    2LJB  SHK    536  19.000   8.985   1.317
    2LJB  SHK    537  20.000   8.985   1.317
    2LJB  SHK    538  21.000   8.985   1.317
    2LJB  SHK    539  22.000   8.985   1.317
    2LJB  SHK    540  23.000   8.985   1.317
    2LJB  SHK    541   4.500   9.851   1.317
    2LJB  SHK    542   5.500   9.851   1.317
    2LJB  SHK    543   6.500   9.851   1.317
    2LJB  SHK    544   7.500   9.851   1.317
    2LJB  SHK    545   8.500   9.851   1.317
    2LJB  SHK    546   9.500   9.851   1.317
    2LJB  SHK    547  10.500   9.851   1.317
    2LJB  SHK    548  11.500   9.851   1.317
    2LJB  SHK    549  12.500   9.851   1.317
    2LJB  SHK    550  13.500   9.851   1.317
    2LJB  SHK    551  14.500   9.851   1.317
    2LJB  SHK    552  15.500   9.851   1.317
    2LJB  SHK    553  16.500   9.851   1.317
    2LJB  SHK    554  17.500   9.851   1.317
    2LJB  SHK    555  18.500   9.851   1.317
    2LJB  SHK    556  19.500   9.851   1.317
    2LJB  SHK    557  20.500   9.851   1.317
    2LJB  SHK    558  21.500   9.851   1.317
    2LJB  SHK    559  22.500   9.851   1.317
    2LJB  SHK    560  23.500   9.851   1.317
    2LJB  SHK    561   4.000  10.717   1.317
    2LJB  SHK    562   5.000  10.717   1.317
    2LJB  SHK    563   6.000  10.717   1.317
    2LJB  SHK    564   7.000  10.717   1.317
    2LJB  SHK    565   8.000  10.717   1.317
    2LJB  SHK    566   9.000  10.717   1.317
    2LJB  SHK    567  10.000  10.717   1.317
    2LJB  SHK    568  11.000  10.717   1.317
    2LJB  SHK    569  12.000  10.717   1.317
    2LJB  SHK    570  13.000  10.717   1.317
    2LJB  SHK    571  14.000  10.717   1.317
    2LJB  SHK    572  15.000  10.717   1.317
    2LJB  SHK    573  16.000  10.717   1.317
    2LJB  SHK    574  17.000  10.717   1.317
    2LJB  SHK    575  18.000  10.717   1.317
    2LJB  SHK    576  19.000  10.717   1.317
    2LJB  SHK    577  20.000  10.717   1.317
    2LJB  SHK    578  21.000  10.717   1.317
    2LJB  SHK    579  22.000  10.717   1.317
    2LJB  SHK    580  23.000  10.717   1.317
    2LJB  SHK    581   4.500  11.583   1.317
    2LJB  SHK    582   5.500  11.583   1.317
    2LJB  SHK    583   6.500  11.583   1.317
    2LJB  SHK    584   7.500  11.583   1.317
    2LJB  SHK    585   8.500  11.583   1.317
    2LJB  SHK    586   9.500  11.583   1.317
    2LJB  SHK    587  10.500  11.583   1.317
    2LJB  SHK    588  11.500  11.583   1.317
    2LJB  SHK    589  12.500  11.583   1.317
    2LJB  SHK    590  13.500  11.583   1.317
    2LJB  SHK    591  14.500  11.583   1.317
    2LJB  SHK    592  15.500  11.583   1.317
    2LJB  SHK    593  16.500  11.583   1.317
    2LJB  SHK    594  17.500  11.583   1.317
    2LJB  SHK    595  18.500  11.583   1.317
    2LJB  SHK    596  19.500  11.583   1.317
    2LJB  SHK    597  20.500  11.583   1.317
    2LJB  SHK    598  21.500  11.583   1.317
    2LJB  SHK    599  22.500  11.583   1.317
    2LJB  SHK    600  23.500  11.583   1.317
    2LJB  SHK    601   4.000  12.449   1.317
    2LJB  SHK    602   5.000  12.449   1.317
    2LJB  SHK    603   6.000  12.449   1.317
    2LJB  SHK    604   7.000  12.449   1.317
    2LJB  SHK    605   8.000  12.449   1.317
    2LJB  SHK    606   9.000  12.449   1.317
    2LJB  SHK    607  10.000  12.449   1.317
    2LJB  SHK    608  11.000  12.449   1.317
    2LJB  SHK    609  12.000  12.449   1.317
    2LJB  SHK    610  13.000  12.449   1.317
    2LJB  SHK    611  14.000  12.449   1.317
    2LJB  SHK    612  15.000  12.449   1.317
    2LJB  SHK    613  16.000  12.449   1.317
    2LJB  SHK    614  17.000  12.449   1.317
    2LJB  SHK    615  18.000  12.449   1.317
    2LJB  SHK    616  19.000  12.449   1.317
    2LJB  SHK    617  20.000  12.449   1.317
    2LJB  SHK    618  21.000  12.449   1.317
    2LJB  SHK    619  22.000  12.449   1.317
    2LJB  SHK    620  23.000  12.449   1.317
    2LJB  SHK    621   4.500  13.315   1.317
    2LJB  SHK    622   5.500  13.315   1.317
    2LJB  SHK    623   6.500  13.315   1.317
    2LJB  SHK    624   7.500  13.315   1.317
    2LJB  SHK    625   8.500  13.315   1.317
    2LJB  SHK    626   9.500  13.315   1.317
    2LJB  SHK    627  10.500  13.315   1.317
    2LJB  SHK    628  11.500  13.315   1.317
    2LJB  SHK    629  12.500  13.315   1.317
    2LJB  SHK    630  13.500  13.315   1.317
    2LJB  SHK    631  14.500  13.315   1.317
    2LJB  SHK    632  15.500  13.315   1.317
    2LJB  SHK    633  16.500  13.315   1.317
    2LJB  SHK    634  17.500  13.315   1.317
    2LJB  SHK    635  18.500  13.315   1.317
    2LJB  SHK    636  19.500  13.315   1.317
    2LJB  SHK    637  20.500  13.315   1.317
    2LJB  SHK    638  21.500  13.315   1.317
    2LJB  SHK    639  22.500  13.315   1.317
    2LJB  SHK    640  23.500  13.315   1.317
    2LJB  SHK    641   4.000  14.181   1.317
    2LJB  SHK    642   5.000  14.181   1.317
    2LJB  SHK    643   6.000  14.181   1.317
    2LJB  SHK    644   7.000  14.181   1.317
    2LJB  SHK    645   8.000  14.181   1.317
    2LJB  SHK    646   9.000  14.181   1.317
    2LJB  SHK    647  10.000  14.181   1.317
    2LJB  SHK    648  11.000  14.181   1.317
    2LJB  SHK    649  12.000  14.181   1.317
    2LJB  SHK    650  13.000  14.181   1.317
    2LJB  SHK    651  14.000  14.181   1.317
    2LJB  SHK    652  15.000  14.181   1.317
    2LJB  SHK    653  16.000  14.181   1.317
    2LJB  SHK    654  17.000  14.181   1.317
    2LJB  SHK    655  18.000  14.181   1.317
    2LJB  SHK    656  19.000  14.181   1.317
    2LJB  SHK    657  20.000  14.181   1.317
    2LJB  SHK    658  21.000  14.181   1.317
    2LJB  SHK    659  22.000  14.181   1.317
    2LJB  SHK    660  23.000  14.181   1.317
    2LJB  SHK    661   4.500  15.047   1.317
    2LJB  SHK    662   5.500  15.047   1.317
    2LJB  SHK    663   6.500  15.047   1.317
    2LJB  SHK    664   7.500  15.047   1.317
    2LJB  SHK    665   8.500  15.047   1.317
    2LJB  SHK    666   9.500  15.047   1.317
    2LJB  SHK    667  10.500  15.047   1.317
    2LJB  SHK    668  11.500  15.047   1.317
    2LJB  SHK    669  12.500  15.047   1.317
    2LJB  SHK    670  13.500  15.047   1.317
    2LJB  SHK    671  14.500  15.047   1.317
    2LJB  SHK    672  15.500  15.047   1.317
    2LJB  SHK    673  16.500  15.047   1.317
    2LJB  SHK    674  17.500  15.047   1.317
    2LJB  SHK    675  18.500  15.047   1.317
    2LJB  SHK    676  19.500  15.047   1.317
    2LJB  SHK    677  20.500  15.047   1.317
    2LJB  SHK    678  21.500  15.047   1.317
    2LJB  SHK    679  22.500  15.047   1.317
    2LJB  SHK    680  23.500  15.047   1.317
    2LJB  SHK    681   4.000  15.913   1.317
    2LJB  SHK    682   5.000  15.913   1.317
    2LJB  SHK    683   6.000  15.913   1.317
    2LJB  SHK    684   7.000  15.913   1.317
    2LJB  SHK    685   8.000  15.913   1.317
    2LJB  SHK    686   9.000  15.913   1.317
    2LJB  SHK    687  10.000  15.913   1.317
    2LJB  SHK    688  11.000  15.913   1.317
    2LJB  SHK    689  12.000  15.913   1.317
    2LJB  SHK    690  13.000  15.913   1.317
    2LJB  SHK    691  14.000  15.913   1.317
    2LJB  SHK    692  15.000  15.913   1.317
    2LJB  SHK    693  16.000  15.913   1.317
    2LJB  SHK    694  17.000  15.913   1.317
    2LJB  SHK    695  18.000  15.913   1.317
    2LJB  SHK    696  19.000  15.913   1.317
    2LJB  SHK    697  20.000  15.913   1.317
    2LJB  SHK    698  21.000  15.913   1.317
    2LJB  SHK    699  22.000  15.913   1.317
    2LJB  SHK    700  23.000  15.913   1.317
    2LJB  SHK    701   4.500  16.779   1.317
    2LJB  SHK    702   5.500  16.779   1.317
    2LJB  SHK    703   6.500  16.779   1.317
    2LJB  SHK    704   7.500  16.779   1.317
    2LJB  SHK    705   8.500  16.779   1.317
    2LJB  SHK    706   9.500  16.779   1.317
    2LJB  SHK    707  10.500  16.779   1.317
    2LJB  SHK    708  11.500  16.779   1.317
    2LJB  SHK    709  12.500  16.779   1.317
    2LJB  SHK    710  13.500  16.779   1.317
    2LJB  SHK    711  14.500  16.779   1.317
    2LJB  SHK    712  15.500  16.779   1.317
    2LJB  SHK    713  16.500  16.779   1.317
    2LJB  SHK    714  17.500  16.779   1.317
    2LJB  SHK    715  18.500  16.779   1.317
    2LJB  SHK    716  19.500  16.779   1.317
    2LJB  SHK    717  20.500  16.779   1.317
    2LJB  SHK    718  21.500  16.779   1.317
    2LJB  SHK    719  22.500  16.779   1.317
    2LJB  SHK    720  23.500  16.779   1.317
    2LJB  SHK    721   4.000  17.645   1.317
    2LJB  SHK    722   5.000  17.645   1.317
    2LJB  SHK    723   6.000  17.645   1.317
    2LJB  SHK    724   7.000  17.645   1.317
    2LJB  SHK    725   8.000  17.645   1.317
    2LJB  SHK    726   9.000  17.645   1.317
    2LJB  SHK    727  10.000  17.645   1.317
    2LJB  SHK    728  11.000  17.645   1.317
    2LJB  SHK    729  12.000  17.645   1.317
    2LJB  SHK    730  13.000  17.645   1.317
    2LJB  SHK    731  14.000  17.645   1.317
    2LJB  SHK    732  15.000  17.645   1.317
    2LJB  SHK    733  16.000  17.645   1.317
    2LJB  SHK    734  17.000  17.645   1.317
    2LJB  SHK    735  18.000  17.645   1.317
    2LJB  SHK    736  19.000  17.645   1.317
    2LJB  SHK    737  20.000  17.645   1.317
    2LJB  SHK    738  21.000  17.645   1.317
    2LJB  SHK    739  22.000  17.645   1.317
    2LJB  SHK    740  23.000  17.645   1.317
    2LJB  SHK    741   4.500  18.511   1.317
    2LJB  SHK    742   5.500  18.511   1.317
    2LJB  SHK    743   6.500  18.511   1.317
    2LJB  SHK    744   7.500  18.511   1.317
    2LJB  SHK    745   8.500  18.511   1.317
    2LJB  SHK    746   9.500  18.511   1.317
    2LJB  SHK    747  10.500  18.511   1.317
    2LJB  SHK    748  11.500  18.511   1.317
    2LJB  SHK    749  12.500  18.511   1.317
    2LJB  SHK    750  13.500  18.511   1.317
    2LJB  SHK    751  14.500  18.511   1.317
    2LJB  SHK    752  15.500  18.511   1.317
    2LJB  SHK    753  16.500  18.511   1.317
    2LJB  SHK    754  17.500  18.511   1.317
    2LJB  SHK    755  18.500  18.511   1.317
    2LJB  SHK    756  19.500  18.511   1.317
    2LJB  SHK    757  20.500  18.511   1.317
    2LJB  SHK    758  21.500  18.511   1.317
    2LJB  SHK    759  22.500  18.511   1.317
    2LJB  SHK    760  23.500  18.511   1.317
    2LJB  SHK    761   4.000  19.377   1.317
    2LJB  SHK    762   5.000  19.377   1.317
    2LJB  SHK    763   6.000  19.377   1.317
    2LJB  SHK    764   7.000  19.377   1.317
    2LJB  SHK    765   8.000  19.377   1.317
    2LJB  SHK    766   9.000  19.377   1.317
    2LJB  SHK    767  10.000  19.377   1.317
    2LJB  SHK    768  11.000  19.377   1.317
    2LJB  SHK    769  12.000  19.377   1.317
    2LJB  SHK    770  13.000  19.377   1.317
    2LJB  SHK    771  14.000  19.377   1.317
    2LJB  SHK    772  15.000  19.377   1.317
    2LJB  SHK    773  16.000  19.377   1.317
    2LJB  SHK    774  17.000  19.377   1.317
    2LJB  SHK    775  18.000  19.377   1.317
    2LJB  SHK    776  19.000  19.377   1.317
    2LJB  SHK    777  20.000  19.377   1.317
    2LJB  SHK    778  21.000  19.377   1.317
    2LJB  SHK    779  22.000  19.377   1.317
    2LJB  SHK    780  23.000  19.377   1.317
    2LJB  SHK    781   4.500  20.243   1.317
    2LJB  SHK    782   5.500  20.243   1.317
    2LJB  SHK    783   6.500  20.243   1.317
    2LJB  SHK    784   7.500  20.243   1.317
    2LJB  SHK    785   8.500  20.243   1.317
    2LJB  SHK    786   9.500  20.243   1.317
    2LJB  SHK    787  10.500  20.243   1.317
    2LJB  SHK    788  11.500  20.243   1.317
    2LJB  SHK    789  12.500  20.243   1.317
    2LJB  SHK    790  13.500  20.243   1.317
    2LJB  SHK    791  14.500  20.243   1.317
    2LJB  SHK    792  15.500  20.243   1.317
    2LJB  SHK    793  16.500  20.243   1.317
    2LJB  SHK    794  17.500  20.243   1.317
    2LJB  SHK    795  18.500  20.243   1.317
    2LJB  SHK    796  19.500  20.243   1.317
    2LJB  SHK    797  20.500  20.243   1.317
    2LJB  SHK    798  21.500  20.243   1.317
    2LJB  SHK    799  22.500  20.243   1.317
    2LJB  SHK    800  23.500  20.243   1.317
    3LJB  SHK    801   3.500   3.500   2.133
    3LJB  SHK    802   4.500   3.500   2.133
    3LJB  SHK    803   5.500   3.500   2.133
    3LJB  SHK    804   6.500   3.500   2.133
    3LJB  SHK    805   7.500   3.500   2.133
    3LJB  SHK    806   8.500   3.500   2.133
    3LJB  SHK    807   9.500   3.500   2.133
    3LJB  SHK    808  10.500   3.500   2.133
    3LJB  SHK    809  11.500   3.500   2.133
    3LJB  SHK    810  12.500   3.500   2.133
    3LJB  SHK    811  13.500   3.500   2.133
    3LJB  SHK    812  14.500   3.500   2.133
    3LJB  SHK    813  15.500   3.500   2.133
    3LJB  SHK    814  16.500   3.500   2.133
    3LJB  SHK    815  17.500   3.500   2.133
    3LJB  SHK    816  18.500   3.500   2.133
    3LJB  SHK    817  19.500   3.500   2.133
    3LJB  SHK    818  20.500   3.500   2.133
    3LJB  SHK    819  21.500   3.500   2.133
    3LJB  SHK    820  22.500   3.500   2.133
    3LJB  SHK    821   4.000   4.366   2.133
    3LJB  SHK    822   5.000   4.366   2.133
    3LJB  SHK    823   6.000   4.366   2.133
    3LJB  SHK    824   7.000   4.366   2.133
    3LJB  SHK    825   8.000   4.366   2.133
    3LJB  SHK    826   9.000   4.366   2.133
    3LJB  SHK    827  10.000   4.366   2.133
    3LJB  SHK    828  11.000   4.366   2.133
    3LJB  SHK    829  12.000   4.366   2.133
    3LJB  SHK    830  13.000   4.366   2.133
    3LJB  SHK    831  14.000   4.366   2.133
    3LJB  SHK    832  15.000   4.366   2.133
    3LJB  SHK    833  16.000   4.366   2.133
    3LJB  SHK    834  17.000   4.366   2.133
    3LJB  SHK    835  18.000   4.366   2.133
    3LJB  SHK    836  19.000   4.366   2.133
    3LJB  SHK    837  20.000   4.366   2.133
    3LJB  SHK    838  21.000   4.366   2.133
    3LJB  SHK    839  22.000   4.366   2.133
    3LJB  SHK    840  23.000   4.366   2.133
    3LJB  SHK    841   3.500   5.232   2.133
    3LJB  SHK    842   4.500   5.232   2.133
    3LJB  SHK    843   5.500   5.232   2.133
    3LJB  SHK    844   6.500   5.232   2.133
    3LJB  SHK    845   7.500   5.232   2.133
    3LJB  SHK    846   8.500   5.232   2.133
    3LJB  SHK    847   9.500   5.232   2.133
    3LJB  SHK    848  10.500   5.232   2.133
    3LJB  SHK    849  11.500   5.232   2.133
    3LJB  SHK    850  12.500   5.232   2.133
    3LJB  SHK    851  13.500   5.232   2.133
    3LJB  SHK    852  14.500   5.232   2.133
    3LJB  SHK    853  15.500   5.232   2.133
    3LJB  SHK    854  16.500   5.232   2.133
    3LJB  SHK    855  17.500   5.232   2.133
    3LJB  SHK    856  18.500   5.232   2.133
    3LJB  SHK    857  19.500   5.232   2.133
    3LJB  SHK    858  20.500   5.232   2.133
    3LJB  SHK    859  21.500   5.232   2.133
    3LJB  SHK    860  22.500   5.232   2.133
    3LJB  SHK    861   4.000   6.098   2.133
    3LJB  SHK    862   5.000   6.098   2.133
    3LJB  SHK    863   6.000   6.098   2.133
    3LJB  SHK    864   7.000   6.098   2.133
    3LJB  SHK    865   8.000   6.098   2.133
    3LJB  SHK    866   9.000   6.098   2.133
    3LJB  SHK    867  10.000   6.098   2.133
    3LJB  SHK    868  11.000   6.098   2.133
    3LJB  SHK    869  12.000   6.098   2.133
    3LJB  SHK    870  13.000   6.098   2.133
    3LJB  SHK    871  14.000   6.098   2.133
    3LJB  SHK    872  15.000   6.098   2.133
    3LJB  SHK    873  16.000   6.098   2.133
    3LJB  SHK    874  17.000   6.098   2.133
    3LJB  SHK    875  18.000   6.098   2.133
    3LJB  SHK    876  19.000   6.098   2.133
    3LJB  SHK    877  20.000   6.098   2.133
    3LJB  SHK    878  21.000   6.098   2.133
    3LJB  SHK    879  22.000   6.098   2.133
    3LJB  SHK    880  23.000   6.098   2.133
    3LJB  SHK    881   3.500   6.964   2.133
    3LJB  SHK    882   4.500   6.964   2.133
    3LJB  SHK    883   5.500   6.964   2.133
    3LJB  SHK    884   6.500   6.964   2.133
    3LJB  SHK    885   7.500   6.964   2.133
    3LJB  SHK    886   8.500   6.964   2.133
    3LJB  SHK    887   9.500   6.964   2.133
    3LJB  SHK    888  10.500   6.964   2.133
    3LJB  SHK    889  11.500   6.964   2.133
    3LJB  SHK    890  12.500   6.964   2.133
    3LJB  SHK    891  13.500   6.964   2.133
    3LJB  SHK    892  14.500   6.964   2.133
    3LJB  SHK    893  15.500   6.964   2.133
    3LJB  SHK    894  16.500   6.964   2.133
    3LJB  SHK    895  17.500   6.964   2.133
    3LJB  SHK    896  18.500   6.964   2.133
    3LJB  SHK    897  19.500   6.964   2.133
    3LJB  SHK    898  20.500   6.964   2.133
    3LJB  SHK    899  21.500   6.964   2.133
    3LJB  SHK    900  22.500   6.964   2.133
    3LJB  SHK    901   4.000   7.830   2.133
    3LJB  SHK    902   5.000   7.830   2.133
    3LJB  SHK    903   6.000   7.830   2.133
    3LJB  SHK    904   7.000   7.830   2.133
    3LJB  SHK    905   8.000   7.830   2.133
    3LJB  SHK    906   9.000   7.830   2.133
    3LJB  SHK    907  10.000   7.830   2.133
    3LJB  SHK    908  11.000   7.830   2.133
    3LJB  SHK    909  12.000   7.830   2.133
    3LJB  SHK    910  13.000   7.830   2.133
    3LJB  SHK    911  14.000   7.830   2.133
    3LJB  SHK    912  15.000   7.830   2.133
    3LJB  SHK    913  16.000   7.830   2.133
    3LJB  SHK    914  17.000   7.830   2.133
    3LJB  SHK    915  18.000   7.830   2.133
    3LJB  SHK    916  19.000   7.830   2.133
    3LJB  SHK    917  20.000   7.830   2.133
    3LJB  SHK    918  21.000   7.830   2.133
    3LJB  SHK    919  22.000   7.830   2.133
    3LJB  SHK    920  23.000   7.830   2.133
    3LJB  SHK    921   3.500   8.696   2.133
    3LJB  SHK    922   4.500   8.696   2.133
    3LJB  SHK    923   5.500   8.696   2.133
    3LJB  SHK    924   6.500   8.696   2.133
    3LJB  SHK    925   7.500   8.696   2.133
    3LJB  SHK    926   8.500   8.696   2.133
    3LJB  SHK    927   9.500   8.696   2.133
    3LJB  SHK    928  10.500   8.696   2.133
    3LJB  SHK    929  11.500   8.696   2.133
    3LJB  SHK    930  12.500   8.696   2.133
    3LJB  SHK    931  13.500   8.696   2.133
    3LJB  SHK    932  14.500   8.696   2.133
    3LJB  SHK    933  15.500   8.696   2.133
    3LJB  SHK    934  16.500   8.696   2.133
    3LJB  SHK    935  17.500   8.696   2.133
    3LJB  SHK    936  18.500   8.696   2.133
    3LJB  SHK    937  19.500   8.696   2.133
    3LJB  SHK    938  20.500   8.696   2.133
    3LJB  SHK    939  21.500   8.696   2.133
    3LJB  SHK    940  22.500   8.696   2.133
    3LJB  SHK    941   4.000   9.562   2.133
    3LJB  SHK    942   5.000   9.562   2.133
    3LJB  SHK    943   6.000   9.562   2.133
    3LJB  SHK    944   7.000   9.562   2.133
    3LJB  SHK    945   8.000   9.562   2.133
    3LJB  SHK    946   9.000   9.562   2.133
    3LJB  SHK    947  10.000   9.562   2.133
    3LJB  SHK    948  11.000   9.562   2.133
    3LJB  SHK    949  12.000   9.562   2.133
    3LJB  SHK    950  13.000   9.562   2.133
    3LJB  SHK    951  14.000   9.562   2.133
    3LJB  SHK    952  15.000   9.562   2.133
    3LJB  SHK    953  16.000   9.562   2.133
    3LJB  SHK    954  17.000   9.562   2.133
    3LJB  SHK    955  18.000   9.562   2.133
    3LJB  SHK    956  19.000   9.562   2.133
    3LJB  SHK    957  20.000   9.562   2.133
    3LJB  SHK    958  21.000   9.562   2.133
    3LJB  SHK    959  22.000   9.562   2.133
    3LJB  SHK    960  23.000   9.562   2.133
    3LJB  SHK    961   3.500  10.428   2.133
    3LJB  SHK    962   4.500  10.428   2.133
    3LJB  SHK    963   5.500  10.428   2.133
    3LJB  SHK    964   6.500  10.428   2.133
    3LJB  SHK    965   7.500  10.428   2.133
    3LJB  SHK    966   8.500  10.428   2.133
    3LJB  SHK    967   9.500  10.428   2.133
    3LJB  SHK    968  10.500  10.428   2.133
    3LJB  SHK    969  11.500  10.428   2.133
    3LJB  SHK    970  12.500  10.428   2.133
    3LJB  SHK    971  13.500  10.428   2.133
    3LJB  SHK    972  14.500  10.428   2.133
    3LJB  SHK    973  15.500  10.428   2.133
    3LJB  SHK    974  16.500  10.428   2.133
    3LJB  SHK    975  17.500  10.428   2.133
    3LJB  SHK    976  18.500  10.428   2.133
    3LJB  SHK    977  19.500  10.428   2.133
    3LJB  SHK    978  20.500  10.428   2.133
    3LJB  SHK    979  21.500  10.428   2.133
    3LJB  SHK    980  22.500  10.428   2.133
    3LJB  SHK    981   4.000  11.294   2.133
    3LJB  SHK    982   5.000  11.294   2.133
    3LJB  SHK    983   6.000  11.294   2.133
    3LJB  SHK    984   7.000  11.294   2.133
    3LJB  SHK    985   8.000  11.294   2.133
    3LJB  SHK    986   9.000  11.294   2.133
    3LJB  SHK    987  10.000  11.294   2.133
    3LJB  SHK    988  11.000  11.294   2.133
    3LJB  SHK    989  12.000  11.294   2.133
    3LJB  SHK    990  13.000  11.294   2.133
    3LJB  SHK    991  14.000  11.294   2.133
    3LJB  SHK    992  15.000  11.294   2.133
    3LJB  SHK    993  16.000  11.294   2.133
    3LJB  SHK    994  17.000  11.294   2.133
    3LJB  SHK    995  18.000  11.294   2.133
    3LJB  SHK    996  19.000  11.294   2.133
    3LJB  SHK    997  20.000  11.294   2.133
    3LJB  SHK    998  21.000  11.294   2.133
    3LJB  SHK    999  22.000  11.294   2.133
    3LJB  SHK   1000  23.000  11.294   2.133
    3LJB  SHK   1001   3.500  12.160   2.133
    3LJB  SHK   1002   4.500  12.160   2.133
    3LJB  SHK   1003   5.500  12.160   2.133
    3LJB  SHK   1004   6.500  12.160   2.133
    3LJB  SHK   1005   7.500  12.160   2.133
    3LJB  SHK   1006   8.500  12.160   2.133
    3LJB  SHK   1007   9.500  12.160   2.133
    3LJB  SHK   1008  10.500  12.160   2.133
    3LJB  SHK   1009  11.500  12.160   2.133
    3LJB  SHK   1010  12.500  12.160   2.133
    3LJB  SHK   1011  13.500  12.160   2.133
    3LJB  SHK   1012  14.500  12.160   2.133
    3LJB  SHK   1013  15.500  12.160   2.133
    3LJB  SHK   1014  16.500  12.160   2.133
    3LJB  SHK   1015  17.500  12.160   2.133
    3LJB  SHK   1016  18.500  12.160   2.133
    3LJB  SHK   1017  19.500  12.160   2.133
    3LJB  SHK   1018  20.500  12.160   2.133
    3LJB  SHK   1019  21.500  12.160   2.133
    3LJB  SHK   1020  22.500  12.160   2.133
    3LJB  SHK   1021   4.000  13.026   2.133
    3LJB  SHK   1022   5.000  13.026   2.133
    3LJB  SHK   1023   6.000  13.026   2.133
    3LJB  SHK   1024   7.000  13.026   2.133
    3LJB  SHK   1025   8.000  13.026   2.133
    3LJB  SHK   1026   9.000  13.026   2.133
    3LJB  SHK   1027  10.000  13.026   2.133
    3LJB  SHK   1028  11.000  13.026   2.133
    3LJB  SHK   1029  12.000  13.026   2.133
    3LJB  SHK   1030  13.000  13.026   2.133
    3LJB  SHK   1031  14.000  13.026   2.133
    3LJB  SHK   1032  15.000  13.026   2.133
    3LJB  SHK   1033  16.000  13.026   2.133
    3LJB  SHK   1034  17.000  13.026   2.133
    3LJB  SHK   1035  18.000  13.026   2.133
    3LJB  SHK   1036  19.000  13.026   2.133
    3LJB  SHK   1037  20.000  13.026   2.133
    3LJB  SHK   1038  21.000  13.026   2.133
    3LJB  SHK   1039  22.000  13.026   2.133
    3LJB  SHK   1040  23.000  13.026   2.133
    3LJB  SHK   1041   3.500  13.892   2.133
    3LJB  SHK   1042   4.500  13.892   2.133
    3LJB  SHK   1043   5.500  13.892   2.133
    3LJB  SHK   1044   6.500  13.892   2.133
    3LJB  SHK   1045   7.500  13.892   2.133
    3LJB  SHK   1046   8.500  13.892   2.133
    3LJB  SHK   1047   9.500  13.892   2.133
    3LJB  SHK   1048  10.500  13.892   2.133
    3LJB  SHK   1049  11.500  13.892   2.133
    3LJB  SHK   1050  12.500  13.892   2.133
    3LJB  SHK   1051  13.500  13.892   2.133
    3LJB  SHK   1052  14.500  13.892   2.133
    3LJB  SHK   1053  15.500  13.892   2.133
    3LJB  SHK   1054  16.500  13.892   2.133
    3LJB  SHK   1055  17.500  13.892   2.133
    3LJB  SHK   1056  18.500  13.892   2.133
    3LJB  SHK   1057  19.500  13.892   2.133
    3LJB  SHK   1058  20.500  13.892   2.133
    3LJB  SHK   1059  21.500  13.892   2.133
    3LJB  SHK   1060  22.500  13.892   2.133
    3LJB  SHK   1061   4.000  14.758   2.133
    3LJB  SHK   1062   5.000  14.758   2.133
    3LJB  SHK   1063   6.000  14.758   2.133
    3LJB  SHK   1064   7.000  14.758   2.133
    3LJB  SHK   1065   8.000  14.758   2.133
    3LJB  SHK   1066   9.000  14.758   2.133
    3LJB  SHK   1067  10.000  14.758   2.133
    3LJB  SHK   1068  11.000  14.758   2.133
    3LJB  SHK   1069  12.000  14.758   2.133
    3LJB  SHK   1070  13.000  14.758   2.133
    3LJB  SHK   1071  14.000  14.758   2.133
    3LJB  SHK   1072  15.000  14.758   2.133
    3LJB  SHK   1073  16.000  14.758   2.133
    3LJB  SHK   1074  17.000  14.758   2.133
    3LJB  SHK   1075  18.000  14.758   2.133
    3LJB  SHK   1076  19.000  14.758   2.133
    3LJB  SHK   1077  20.000  14.758   2.133
    3LJB  SHK   1078  21.000  14.758   2.133
    3LJB  SHK   1079  22.000  14.758   2.133
    3LJB  SHK   1080  23.000  14.758   2.133
    3LJB  SHK   1081   3.500  15.624   2.133
    3LJB  SHK   1082   4.500  15.624   2.133
    3LJB  SHK   1083   5.500  15.624   2.133
    3LJB  SHK   1084   6.500  15.624   2.133
    3LJB  SHK   1085   7.500  15.624   2.133
    3LJB  SHK   1086   8.500  15.624   2.133
    3LJB  SHK   1087   9.500  15.624   2.133
    3LJB  SHK   1088  10.500  15.624   2.133
    3LJB  SHK   1089  11.500  15.624   2.133
    3LJB  SHK   1090  12.500  15.624   2.133
    3LJB  SHK   1091  13.500  15.624   2.133
    3LJB  SHK   1092  14.500  15.624   2.133
    3LJB  SHK   1093  15.500  15.624   2.133
    3LJB  SHK   1094  16.500  15.624   2.133
    3LJB  SHK   1095  17.500  15.624   2.133
    3LJB  SHK   1096  18.500  15.624   2.133
    3LJB  SHK   1097  19.500  15.624   2.133
    3LJB  SHK   1098  20.500  15.624   2.133
    3LJB  SHK   1099  21.500  15.624   2.133
    3LJB  SHK   1100  22.500  15.624   2.133
    3LJB  SHK   1101   4.000  16.490   2.133
    3LJB  SHK   1102   5.000  16.490   2.133
    3LJB  SHK   1103   6.000  16.490   2.133
    3LJB  SHK   1104   7.000  16.490   2.133
    3LJB  SHK   1105   8.000  16.490   2.133
    3LJB  SHK   1106   9.000  16.490   2.133
    3LJB  SHK   1107  10.000  16.490   2.133
    3LJB  SHK   1108  11.000  16.490   2.133
    3LJB  SHK   1109  12.000  16.490   2.133
    3LJB  SHK   1110  13.000  16.490   2.133
    3LJB  SHK   1111  14.000  16.490   2.133
    3LJB  SHK   1112  15.000  16.490   2.133
    3LJB  SHK   1113  16.000  16.490   2.133
    3LJB  SHK   1114  17.000  16.490   2.133
    3LJB  SHK   1115  18.000  16.490   2.133
    3LJB  SHK   1116  19.000  16.490   2.133
    3LJB  SHK   1117  20.000  16.490   2.133
    3LJB  SHK   1118  21.000  16.490   2.133
    3LJB  SHK   1119  22.000  16.490   2.133
    3LJB  SHK   1120  23.000  16.490   2.133
    3LJB  SHK   1121   3.500  17.356   2.133
    3LJB  SHK   1122   4.500  17.356   2.133
    3LJB  SHK   1123   5.500  17.356   2.133
    3LJB  SHK   1124   6.500  17.356   2.133
    3LJB  SHK   1125   7.500  17.356   2.133
    3LJB  SHK   1126   8.500  17.356   2.133
    3LJB  SHK   1127   9.500  17.356   2.133
    3LJB  SHK   1128  10.500  17.356   2.133
    3LJB  SHK   1129  11.500  17.356   2.133
    3LJB  SHK   1130  12.500  17.356   2.133
    3LJB  SHK   1131  13.500  17.356   2.133
    3LJB  SHK   1132  14.500  17.356   2.133
    3LJB  SHK   1133  15.500  17.356   2.133
    3LJB  SHK   1134  16.500  17.356   2.133
    3LJB  SHK   1135  17.500  17.356   2.133
    3LJB  SHK   1136  18.500  17.356   2.133
    3LJB  SHK   1137  19.500  17.356   2.133
    3LJB  SHK   1138  20.500  17.356   2.133
    3LJB  SHK   1139  21.500  17.356   2.133
    3LJB  SHK   1140  22.500  17.356   2.133
    3LJB  SHK   1141   4.000  18.222   2.133
    3LJB  SHK   1142   5.000  18.222   2.133
    3LJB  SHK   1143   6.000  18.222   2.133
    3LJB  SHK   1144   7.000  18.222   2.133
    3LJB  SHK   1145   8.000  18.222   2.133
    3LJB  SHK   1146   9.000  18.222   2.133
    3LJB  SHK   1147  10.000  18.222   2.133
    3LJB  SHK   1148  11.000  18.222   2.133
    3LJB  SHK   1149  12.000  18.222   2.133
    3LJB  SHK   1150  13.000  18.222   2.133
    3LJB  SHK   1151  14.000  18.222   2.133
    3LJB  SHK   1152  15.000  18.222   2.133
    3LJB  SHK   1153  16.000  18.222   2.133
    3LJB  SHK   1154  17.000  18.222   2.133
    3LJB  SHK   1155  18.000  18.222   2.133
    3LJB  SHK   1156  19.000  18.222   2.133
    3LJB  SHK   1157  20.000  18.222   2.133
    3LJB  SHK   1158  21.000  18.222   2.133
    3LJB  SHK   1159  22.000  18.222   2.133
    3LJB  SHK   1160  23.000  18.222   2.133
    3LJB  SHK   1161   3.500  19.088   2.133
    3LJB  SHK   1162   4.500  19.088   2.133
    3LJB  SHK   1163   5.500  19.088   2.133
    3LJB  SHK   1164   6.500  19.088   2.133
    3LJB  SHK   1165   7.500  19.088   2.133
    3LJB  SHK   1166   8.500  19.088   2.133
    3LJB  SHK   1167   9.500  19.088   2.133
    3LJB  SHK   1168  10.500  19.088   2.133
    3LJB  SHK   1169  11.500  19.088   2.133
    3LJB  SHK   1170  12.500  19.088   2.133
    3LJB  SHK   1171  13.500  19.088   2.133
    3LJB  SHK   1172  14.500  19.088   2.133
    3LJB  SHK   1173  15.500  19.088   2.133
    3LJB  SHK   1174  16.500  19.088   2.133
    3LJB  SHK   1175  17.500  19.088   2.133
    3LJB  SHK   1176  18.500  19.088   2.133
    3LJB  SHK   1177  19.500  19.088   2.133
    3LJB  SHK   1178  20.500  19.088   2.133
    3LJB  SHK   1179  21.500  19.088   2.133
    3LJB  SHK   1180  22.500  19.088   2.133
    3LJB  SHK   1181   4.000  19.954   2.133
    3LJB  SHK   1182   5.000  19.954   2.133
    3LJB  SHK   1183   6.000  19.954   2.133
    3LJB  SHK   1184   7.000  19.954   2.133
    3LJB  SHK   1185   8.000  19.954   2.133
    3LJB  SHK   1186   9.000  19.954   2.133
    3LJB  SHK   1187  10.000  19.954   2.133
    3LJB  SHK   1188  11.000  19.954   2.133
    3LJB  SHK   1189  12.000  19.954   2.133
    3LJB  SHK   1190  13.000  19.954   2.133
    3LJB  SHK   1191  14.000  19.954   2.133
    3LJB  SHK   1192  15.000  19.954   2.133
    3LJB  SHK   1193  16.000  19.954   2.133
    3LJB  SHK   1194  17.000  19.954   2.133
    3LJB  SHK   1195  18.000  19.954   2.133
    3LJB  SHK   1196  19.000  19.954   2.133
    3LJB  SHK   1197  20.000  19.954   2.133
    3LJB  SHK   1198  21.000  19.954   2.133
    3LJB  SHK   1199  22.000  19.954   2.133
    3LJB  SHK   1200  23.000  19.954   2.133
    4LJB  SHK   1201   4.000   3.789   2.950
    4LJB  SHK   1202   5.000   3.789   2.950
    4LJB  SHK   1203   6.000   3.789   2.950
    4LJB  SHK   1204   7.000   3.789   2.950
    4LJB  SHK   1205   8.000   3.789   2.950
    4LJB  SHK   1206   9.000   3.789   2.950
    4LJB  SHK   1207  10.000   3.789   2.950
    4LJB  SHK   1208  11.000   3.789   2.950
    4LJB  SHK   1209  12.000   3.789   2.950
    4LJB  SHK   1210  13.000   3.789   2.950
    4LJB  SHK   1211  14.000   3.789   2.950
    4LJB  SHK   1212  15.000   3.789   2.950
    4LJB  SHK   1213  16.000   3.789   2.950
    4LJB  SHK   1214  17.000   3.789   2.950
    4LJB  SHK   1215  18.000   3.789   2.950
    4LJB  SHK   1216  19.000   3.789   2.950
    4LJB  SHK   1217  20.000   3.789   2.950
    4LJB  SHK   1218  21.000   3.789   2.950
    4LJB  SHK   1219  22.000   3.789   2.950
    4LJB  SHK   1220  23.000   3.789   2.950
    4LJB  SHK   1221   4.500   4.655   2.950
    4LJB  SHK   1222   5.500   4.655   2.950
    4LJB  SHK   1223   6.500   4.655   2.950
    4LJB  SHK   1224   7.500   4.655   2.950
    4LJB  SHK   1225   8.500   4.655   2.950
    4LJB  SHK   1226   9.500   4.655   2.950
    4LJB  SHK   1227  10.500   4.655   2.950
    4LJB  SHK   1228  11.500   4.655   2.950
    4LJB  SHK   1229  12.500   4.655   2.950
    4LJB  SHK   1230  13.500   4.655   2.950
    4LJB  SHK   1231  14.500   4.655   2.950
    4LJB  SHK   1232  15.500   4.655   2.950
    4LJB  SHK   1233  16.500   4.655   2.950
    4LJB  SHK   1234  17.500   4.655   2.950
    4LJB  SHK   1235  18.500   4.655   2.950
    4LJB  SHK   1236  19.500   4.655   2.950
    4LJB  SHK   1237  20.500   4.655   2.950
    4LJB  SHK   1238  21.500   4.655   2.950
    4LJB  SHK   1239  22.500   4.655   2.950
    4LJB  SHK   1240  23.500   4.655   2.950
    4LJB  SHK   1241   4.000   5.521   2.950
    4LJB  SHK   1242   5.000   5.521   2.950
    4LJB  SHK   1243   6.000   5.521   2.950
    4LJB  SHK   1244   7.000   5.521   2.950
    4LJB  SHK   1245   8.000   5.521   2.950
    4LJB  SHK   1246   9.000   5.521   2.950
    4LJB  SHK   1247  10.000   5.521   2.950
    4LJB  SHK   1248  11.000   5.521   2.950
    4LJB  SHK   1249  12.000   5.521   2.950
    4LJB  SHK   1250  13.000   5.521   2.950
    4LJB  SHK   1251  14.000   5.521   2.950
    4LJB  SHK   1252  15.000   5.521   2.950
    4LJB  SHK   1253  16.000   5.521   2.950
    4LJB  SHK   1254  17.000   5.521   2.950
    4LJB  SHK   1255  18.000   5.521   2.950
    4LJB  SHK   1256  19.000   5.521   2.950
    4LJB  SHK   1257  20.000   5.521   2.950
    4LJB  SHK   1258  21.000   5.521   2.950
    4LJB  SHK   1259  22.000   5.521   2.950
    4LJB  SHK   1260  23.000   5.521   2.950
    4LJB  SHK   1261   4.500   6.387   2.950
    4LJB  SHK   1262   5.500   6.387   2.950
    4LJB  SHK   1263   6.500   6.387   2.950
    4LJB  SHK   1264   7.500   6.387   2.950
    4LJB  SHK   1265   8.500   6.387   2.950
    4LJB  SHK   1266   9.500   6.387   2.950
    4LJB  SHK   1267  10.500   6.387   2.950
    4LJB  SHK   1268  11.500   6.387   2.950
    4LJB  SHK   1269  12.500   6.387   2.950
    4LJB  SHK   1270  13.500   6.387   2.950
    4LJB  SHK   1271  14.500   6.387   2.950
    4LJB  SHK   1272  15.500   6.387   2.950
    4LJB  SHK   1273  16.500   6.387   2.950
    4LJB  SHK   1274  17.500   6.387   2.950
    4LJB  SHK   1275  18.500   6.387   2.950
    4LJB  SHK   1276  19.500   6.387   2.950
    4LJB  SHK   1277  20.500   6.387   2.950
    4LJB  SHK   1278  21.500   6.387   2.950
    4LJB  SHK   1279  22.500   6.387   2.950
    4LJB  SHK   1280  23.500   6.387   2.950
    4LJB  SHK   1281   4.000   7.253   2.950
    4LJB  SHK   1282   5.000   7.253   2.950
    4LJB  SHK   1283   6.000   7.253   2.950
    4LJB  SHK   1284   7.000   7.253   2.950
    4LJB  SHK   1285   8.000   7.253   2.950
    4LJB  SHK   1286   9.000   7.253   2.950
    4LJB  SHK   1287  10.000   7.253   2.950
    4LJB  SHK   1288  11.000   7.253   2.950
    4LJB  SHK   1289  12.000   7.253   2.950
    4LJB  SHK   1290  13.000   7.253   2.950
    4LJB  SHK   1291  14.000   7.253   2.950
    4LJB  SHK   1292  15.000   7.253   2.950
    4LJB  SHK   1293  16.000   7.253   2.950
    4LJB  SHK   1294  17.000   7.253   2.950
    4LJB  SHK   1295  18.000   7.253   2.950
    4LJB  SHK   1296  19.000   7.253   2.950
    4LJB  SHK   1297  20.000   7.253   2.950
    4LJB  SHK   1298  21.000   7.253   2.950
    4LJB  SHK   1299  22.000   7.253   2.950
    4LJB  SHK   1300  23.000   7.253   2.950
    4LJB  SHK   1301   4.500   8.119   2.950
    4LJB  SHK   1302   5.500   8.119   2.950
    4LJB  SHK   1303   6.500   8.119   2.950
    4LJB  SHK   1304   7.500   8.119   2.950
    4LJB  SHK   1305   8.500   8.119   2.950
    4LJB  SHK   1306   9.500   8.119   2.950
    4LJB  SHK   1307  10.500   8.119   2.950
    4LJB  SHK   1308  11.500   8.119   2.950
    4LJB  SHK   1309  12.500   8.119   2.950
    4LJB  SHK   1310  13.500   8.119   2.950
    4LJB  SHK   1311  14.500   8.119   2.950
    4LJB  SHK   1312  15.500   8.119   2.950
    4LJB  SHK   1313  16.500   8.119   2.950
    4LJB  SHK   1314  17.500   8.119   2.950
    4LJB  SHK   1315  18.500   8.119   2.950
    4LJB  SHK   1316  19.500   8.119   2.950
    4LJB  SHK   1317  20.500   8.119   2.950
    4LJB  SHK   1318  21.500   8.119   2.950
    4LJB  SHK   1319  22.500   8.119   2.950
    4LJB  SHK   1320  23.500   8.119   2.950
    4LJB  SHK   1321   4.000   8.985   2.950
    4LJB  SHK   1322   5.000   8.985   2.950
    4LJB  SHK   1323   6.000   8.985   2.950
    4LJB  SHK   1324   7.000   8.985   2.950
    4LJB  SHK   1325   8.000   8.985   2.950
    4LJB  SHK   1326   9.000   8.985   2.950
    4LJB  SHK   1327  10.000   8.985   2.950
    4LJB  SHK   1328  11.000   8.985   2.950
    4LJB  SHK   1329  12.000   8.985   2.950
    4LJB  SHK   1330  13.000   8.985   2.950
    4LJB  SHK   1331  14.000   8.985   2.950
    4LJB  SHK   1332  15.000   8.985   2.950
    4LJB  SHK   1333  16.000   8.985   2.950
    4LJB  SHK   1334  17.000   8.985   2.950
    4LJB  SHK   1335  18.000   8.985   2.950
    4LJB  SHK   1336  19.000   8.985   2.950
    4LJB  SHK   1337  20.000   8.985   2.950
    4LJB  SHK   1338  21.000   8.985   2.950
    4LJB  SHK   1339  22.000   8.985   2.950
    4LJB  SHK   1340  23.000   8.985   2.950
    4LJB  SHK   1341   4.500   9.851   2.950
    4LJB  SHK   1342   5.500   9.851   2.950
    4LJB  SHK   1343   6.500   9.851   2.950
    4LJB  SHK   1344   7.500   9.851   2.950
    4LJB  SHK   1345   8.500   9.851   2.950
    4LJB  SHK   1346   9.500   9.851   2.950
    4LJB  SHK   1347  10.500   9.851   2.950
    4LJB  SHK   1348  11.500   9.851   2.950
    4LJB  SHK   1349  12.500   9.851   2.950
    4LJB  SHK   1350  13.500   9.851   2.950
    4LJB  SHK   1351  14.500   9.851   2.950
    4LJB  SHK   1352  15.500   9.851   2.950
    4LJB  SHK   1353  16.500   9.851   2.950
    4LJB  SHK   1354  17.500   9.851   2.950
    4LJB  SHK   1355  18.500   9.851   2.950
    4LJB  SHK   1356  19.500   9.851   2.950
    4LJB  SHK   1357  20.500   9.851   2.950
    4LJB  SHK   1358  21.500   9.851   2.950
    4LJB  SHK   1359  22.500   9.851   2.950
    4LJB  SHK   1360  23.500   9.851   2.950
    4LJB  SHK   1361   4.000  10.717   2.950
    4LJB  SHK   1362   5.000  10.717   2.950
    4LJB  SHK   1363   6.000  10.717   2.950
    4LJB  SHK   1364   7.000  10.717   2.950
    4LJB  SHK   1365   8.000  10.717   2.950
    4LJB  SHK   1366   9.000  10.717   2.950
    4LJB  SHK   1367  10.000  10.717   2.950
    4LJB  SHK   1368  11.000  10.717   2.950
    4LJB  SHK   1369  12.000  10.717   2.950
    4LJB  SHK   1370  13.000  10.717   2.950
    4LJB  SHK   1371  14.000  10.717   2.950
    4LJB  SHK   1372  15.000  10.717   2.950
    4LJB  SHK   1373  16.000  10.717   2.950
    4LJB  SHK   1374  17.000  10.717   2.950
    4LJB  SHK   1375  18.000  10.717   2.950
    4LJB  SHK   1376  19.000  10.717   2.950
    4LJB  SHK   1377  20.000  10.717   2.950
    4LJB  SHK   1378  21.000  10.717   2.950
    4LJB  SHK   1379  22.000  10.717   2.950
    4LJB  SHK   1380  23.000  10.717   2.950
    4LJB  SHK   1381   4.500  11.583   2.950
    4LJB  SHK   1382   5.500  11.583   2.950
    4LJB  SHK   1383   6.500  11.583   2.950
    4LJB  SHK   1384   7.500  11.583   2.950
    4LJB  SHK   1385   8.500  11.583   2.950
    4LJB  SHK   1386   9.500  11.583   2.950
    4LJB  SHK   1387  10.500  11.583   2.950
    4LJB  SHK   1388  11.500  11.583   2.950
    4LJB  SHK   1389  12.500  11.583   2.950
    4LJB  SHK   1390  13.500  11.583   2.950
    4LJB  SHK   1391  14.500  11.583   2.950
    4LJB  SHK   1392  15.500  11.583   2.950
    4LJB  SHK   1393  16.500  11.583   2.950
    4LJB  SHK   1394  17.500  11.583   2.950
    4LJB  SHK   1395  18.500  11.583   2.950
    4LJB  SHK   1396  19.500  11.583   2.950
    4LJB  SHK   1397  20.500  11.583   2.950
    4LJB  SHK   1398  21.500  11.583   2.950
    4LJB  SHK   1399  22.500  11.583   2.950
    4LJB  SHK   1400  23.500  11.583   2.950
    4LJB  SHK   1401   4.000  12.449   2.950
    4LJB  SHK   1402   5.000  12.449   2.950
    4LJB  SHK   1403   6.000  12.449   2.950
    4LJB  SHK   1404   7.000  12.449   2.950
    4LJB  SHK   1405   8.000  12.449   2.950
    4LJB  SHK   1406   9.000  12.449   2.950
    4LJB  SHK   1407  10.000  12.449   2.950
    4LJB  SHK   1408  11.000  12.449   2.950
    4LJB  SHK   1409  12.000  12.449   2.950
    4LJB  SHK   1410  13.000  12.449   2.950
    4LJB  SHK   1411  14.000  12.449   2.950
    4LJB  SHK   1412  15.000  12.449   2.950
    4LJB  SHK   1413  16.000  12.449   2.950
    4LJB  SHK   1414  17.000  12.449   2.950
    4LJB  SHK   1415  18.000  12.449   2.950
    4LJB  SHK   1416  19.000  12.449   2.950
    4LJB  SHK   1417  20.000  12.449   2.950
    4LJB  SHK   1418  21.000  12.449   2.950
    4LJB  SHK   1419  22.000  12.449   2.950
    4LJB  SHK   1420  23.000  12.449   2.950
    4LJB  SHK   1421   4.500  13.315   2.950
    4LJB  SHK   1422   5.500  13.315   2.950
    4LJB  SHK   1423   6.500  13.315   2.950
    4LJB  SHK   1424   7.500  13.315   2.950
    4LJB  SHK   1425   8.500  13.315   2.950
    4LJB  SHK   1426   9.500  13.315   2.950
    4LJB  SHK   1427  10.500  13.315   2.950
    4LJB  SHK   1428  11.500  13.315   2.950
    4LJB  SHK   1429  12.500  13.315   2.950
    4LJB  SHK   1430  13.500  13.315   2.950
    4LJB  SHK   1431  14.500  13.315   2.950
    4LJB  SHK   1432  15.500  13.315   2.950
    4LJB  SHK   1433  16.500  13.315   2.950
    4LJB  SHK   1434  17.500  13.315   2.950
    4LJB  SHK   1435  18.500  13.315   2.950
    4LJB  SHK   1436  19.500  13.315   2.950
    4LJB  SHK   1437  20.500  13.315   2.950
    4LJB  SHK   1438  21.500  13.315   2.950
    4LJB  SHK   1439  22.500  13.315   2.950
    4LJB  SHK   1440  23.500  13.315   2.950
    4LJB  SHK   1441   4.000  14.181   2.950
    4LJB  SHK   1442   5.000  14.181   2.950
    4LJB  SHK   1443   6.000  14.181   2.950
    4LJB  SHK   1444   7.000  14.181   2.950
    4LJB  SHK   1445   8.000  14.181   2.950
    4LJB  SHK   1446   9.000  14.181   2.950
    4LJB  SHK   1447  10.000  14.181   2.950
    4LJB  SHK   1448  11.000  14.181   2.950
    4LJB  SHK   1449  12.000  14.181   2.950
    4LJB  SHK   1450  13.000  14.181   2.950
    4LJB  SHK   1451  14.000  14.181   2.950
    4LJB  SHK   1452  15.000  14.181   2.950
    4LJB  SHK   1453  16.000  14.181   2.950
    4LJB  SHK   1454  17.000  14.181   2.950
    4LJB  SHK   1455  18.000  14.181   2.950
    4LJB  SHK   1456  19.000  14.181   2.950
    4LJB  SHK   1457  20.000  14.181   2.950
    4LJB  SHK   1458  21.000  14.181   2.950
    4LJB  SHK   1459  22.000  14.181   2.950
    4LJB  SHK   1460  23.000  14.181   2.950
    4LJB  SHK   1461   4.500  15.047   2.950
    4LJB  SHK   1462   5.500  15.047   2.950
    4LJB  SHK   1463   6.500  15.047   2.950
    4LJB  SHK   1464   7.500  15.047   2.950
    4LJB  SHK   1465   8.500  15.047   2.950
    4LJB  SHK   1466   9.500  15.047   2.950
    4LJB  SHK   1467  10.500  15.047   2.950
    4LJB  SHK   1468  11.500  15.047   2.950
    4LJB  SHK   1469  12.500  15.047   2.950
    4LJB  SHK   1470  13.500  15.047   2.950
    4LJB  SHK   1471  14.500  15.047   2.950
    4LJB  SHK   1472  15.500  15.047   2.950
    4LJB  SHK   1473  16.500  15.047   2.950
    4LJB  SHK   1474  17.500  15.047   2.950
    4LJB  SHK   1475  18.500  15.047   2.950
    4LJB  SHK   1476  19.500  15.047   2.950
    4LJB  SHK   1477  20.500  15.047   2.950
    4LJB  SHK   1478  21.500  15.047   2.950
    4LJB  SHK   1479  22.500  15.047   2.950
    4LJB  SHK   1480  23.500  15.047   2.950
    4LJB  SHK   1481   4.000  15.913   2.950
    4LJB  SHK   1482   5.000  15.913   2.950
    4LJB  SHK   1483   6.000  15.913   2.950
    4LJB  SHK   1484   7.000  15.913   2.950
    4LJB  SHK   1485   8.000  15.913   2.950
    4LJB  SHK   1486   9.000  15.913   2.950
    4LJB  SHK   1487  10.000  15.913   2.950
    4LJB  SHK   1488  11.000  15.913   2.950
    4LJB  SHK   1489  12.000  15.913   2.950
    4LJB  SHK   1490  13.000  15.913   2.950
    4LJB  SHK   1491  14.000  15.913   2.950
    4LJB  SHK   1492  15.000  15.913   2.950
    4LJB  SHK   1493  16.000  15.913   2.950
    4LJB  SHK   1494  17.000  15.913   2.950
    4LJB  SHK   1495  18.000  15.913   2.950
    4LJB  SHK   1496  19.000  15.913   2.950
    4LJB  SHK   1497  20.000  15.913   2.950
    4LJB  SHK   1498  21.000  15.913   2.950
    4LJB  SHK   1499  22.000  15.913   2.950
    4LJB  SHK   1500  23.000  15.913   2.950
    4LJB  SHK   1501   4.500  16.779   2.950
    4LJB  SHK   1502   5.500  16.779   2.950
    4LJB  SHK   1503   6.500  16.779   2.950
    4LJB  SHK   1504   7.500  16.779   2.950
    4LJB  SHK   1505   8.500  16.779   2.950
    4LJB  SHK   1506   9.500  16.779   2.950
    4LJB  SHK   1507  10.500  16.779   2.950
    4LJB  SHK   1508  11.500  16.779   2.950
    4LJB  SHK   1509  12.500  16.779   2.950
    4LJB  SHK   1510  13.500  16.779   2.950
    4LJB  SHK   1511  14.500  16.779   2.950
    4LJB  SHK   1512  15.500  16.779   2.950
    4LJB  SHK   1513  16.500  16.779   2.950
    4LJB  SHK   1514  17.500  16.779   2.950
    4LJB  SHK   1515  18.500  16.779   2.950
    4LJB  SHK   1516  19.500  16.779   2.950
    4LJB  SHK   1517  20.500  16.779   2.950
    4LJB  SHK   1518  21.500  16.779   2.950
    4LJB  SHK   1519  22.500  16.779   2.950
    4LJB  SHK   1520  23.500  16.779   2.950
    4LJB  SHK   1521   4.000  17.645   2.950
    4LJB  SHK   1522   5.000  17.645   2.950
    4LJB  SHK   1523   6.000  17.645   2.950
    4LJB  SHK   1524   7.000  17.645   2.950
    4LJB  SHK   1525   8.000  17.645   2.950
    4LJB  SHK   1526   9.000  17.645   2.950
    4LJB  SHK   1527  10.000  17.645   2.950
    4LJB  SHK   1528  11.000  17.645   2.950
    4LJB  SHK   1529  12.000  17.645   2.950
    4LJB  SHK   1530  13.000  17.645   2.950
    4LJB  SHK   1531  14.000  17.645   2.950
    4LJB  SHK   1532  15.000  17.645   2.950
    4LJB  SHK   1533  16.000  17.645   2.950
    4LJB  SHK   1534  17.000  17.645   2.950
    4LJB  SHK   1535  18.000  17.645   2.950
    4LJB  SHK   1536  19.000  17.645   2.950
    4LJB  SHK   1537  20.000  17.645   2.950
    4LJB  SHK   1538  21.000  17.645   2.950
    4LJB  SHK   1539  22.000  17.645   2.950
    4LJB  SHK   1540  23.000  17.645   2.950
    4LJB  SHK   1541   4.500  18.511   2.950
    4LJB  SHK   1542   5.500  18.511   2.950
    4LJB  SHK   1543   6.500  18.511   2.950
    4LJB  SHK   1544   7.500  18.511   2.950
    4LJB  SHK   1545   8.500  18.511   2.950
    4LJB  SHK   1546   9.500  18.511   2.950
    4LJB  SHK   1547  10.500  18.511   2.950
    4LJB  SHK   1548  11.500  18.511   2.950
    4LJB  SHK   1549  12.500  18.511   2.950
    4LJB  SHK   1550  13.500  18.511   2.950
    4LJB  SHK   1551  14.500  18.511   2.950
    4LJB  SHK   1552  15.500  18.511   2.950
    4LJB  SHK   1553  16.500  18.511   2.950
    4LJB  SHK   1554  17.500  18.511   2.950
    4LJB  SHK   1555  18.500  18.511   2.950
    4LJB  SHK   1556  19.500  18.511   2.950
    4LJB  SHK   1557  20.500  18.511   2.950
    4LJB  SHK   1558  21.500  18.511   2.950
    4LJB  SHK   1559  22.500  18.511   2.950
    4LJB  SHK   1560  23.500  18.511   2.950
    4LJB  SHK   1561   4.000  19.377   2.950
    4LJB  SHK   1562   5.000  19.377   2.950
    4LJB  SHK   1563   6.000  19.377   2.950
    4LJB  SHK   1564   7.000  19.377   2.950
    4LJB  SHK   1565   8.000  19.377   2.950
    4LJB  SHK   1566   9.000  19.377   2.950
    4LJB  SHK   1567  10.000  19.377   2.950
    4LJB  SHK   1568  11.000  19.377   2.950
    4LJB  SHK   1569  12.000  19.377   2.950
    4LJB  SHK   1570  13.000  19.377   2.950
    4LJB  SHK   1571  14.000  19.377   2.950
    4LJB  SHK   1572  15.000  19.377   2.950
    4LJB  SHK   1573  16.000  19.377   2.950
    4LJB  SHK   1574  17.000  19.377   2.950
    4LJB  SHK   1575  18.000  19.377   2.950
    4LJB  SHK   1576  19.000  19.377   2.950
    4LJB  SHK   1577  20.000  19.377   2.950
    4LJB  SHK   1578  21.000  19.377   2.950
    4LJB  SHK   1579  22.000  19.377   2.950
    4LJB  SHK   1580  23.000  19.377   2.950
    4LJB  SHK   1581   4.500  20.243   2.950
    4LJB  SHK   1582   5.500  20.243   2.950
    4LJB  SHK   1583   6.500  20.243   2.950
    4LJB  SHK   1584   7.500  20.243   2.950
    4LJB  SHK   1585   8.500  20.243   2.950
    4LJB  SHK   1586   9.500  20.243   2.950
    4LJB  SHK   1587  10.500  20.243   2.950
    4LJB  SHK   1588  11.500  20.243   2.950
    4LJB  SHK   1589  12.500  20.243   2.950
    4LJB  SHK   1590  13.500  20.243   2.950
    4LJB  SHK   1591  14.500  20.243   2.950
    4LJB  SHK   1592  15.500  20.243   2.950
    4LJB  SHK   1593  16.500  20.243   2.950
    4LJB  SHK   1594  17.500  20.243   2.950
    4LJB  SHK   1595  18.500  20.243   2.950
    4LJB  SHK   1596  19.500  20.243   2.950
    4LJB  SHK   1597  20.500  20.243   2.950
    4LJB  SHK   1598  21.500  20.243   2.950
    4LJB  SHK   1599  22.500  20.243   2.950
    4LJB  SHK   1600  23.500  20.243   2.950
    5LJS  SHA   1601   3.500   3.500   3.766
    5LJS  SHB   1602   4.500   3.500   3.766
    5LJS  SHA   1603   5.500   3.500   3.766
    5LJS  SHB   1604   6.500   3.500   3.766
    5LJS  SHB   1605   7.500   3.500   3.766
    5LJS  SHA   1606   8.500   3.500   3.766
    5LJS  SHA   1607   9.500   3.500   3.766
    5LJS  SHB   1608  10.500   3.500   3.766
    5LJS  SHA   1609  11.500   3.500   3.766
    5LJS  SHA   1610  12.500   3.500   3.766
    5LJS  SHA   1611  13.500   3.500   3.766
    5LJS  SHA   1612  14.500   3.500   3.766
    5LJS  SHB   1613  15.500   3.500   3.766
    5LJS  SHA   1614  16.500   3.500   3.766
    5LJS  SHA   1615  17.500   3.500   3.766
    5LJS  SHA   1616  18.500   3.500   3.766
    5LJS  SHA   1617  19.500   3.500   3.766
    5LJS  SHA   1618  20.500   3.500   3.766
    5LJS  SHA   1619  21.500   3.500   3.766
    5LJS  SHA   1620  22.500   3.500   3.766
    5LJS  SHB   1621   4.000   4.366   3.766
    5LJS  SHB   1622   5.000   4.366   3.766
    5LJS  SHB   1623   6.000   4.366   3.766
    5LJS  SHB   1624   7.000   4.366   3.766
    5LJS  SHB   1625   8.000   4.366   3.766
    5LJS  SHA   1626   9.000   4.366   3.766
    5LJS  SHA   1627  10.000   4.366   3.766
    5LJS  SHA   1628  11.000   4.366   3.766
    5LJS  SHA   1629  12.000   4.366   3.766
    5LJS  SHA   1630  13.000   4.366   3.766
    5LJS  SHA   1631  14.000   4.366   3.766
    5LJS  SHA   1632  15.000   4.366   3.766
    5LJS  SHA   1633  16.000   4.366   3.766
    5LJS  SHA   1634  17.000   4.366   3.766
    5LJS  SHB   1635  18.000   4.366   3.766
    5LJS  SHB   1636  19.000   4.366   3.766
    5LJS  SHB   1637  20.000   4.366   3.766
    5LJS  SHA   1638  21.000   4.366   3.766
    5LJS  SHA   1639  22.000   4.366   3.766
    5LJS  SHB   1640  23.000   4.366   3.766
    5LJS  SHA   1641   3.500   5.232   3.766
    5LJS  SHA   1642   4.500   5.232   3.766
    5LJS  SHA   1643   5.500   5.232   3.766
    5LJS  SHB   1644   6.500   5.232   3.766
    5LJS  SHA   1645   7.500   5.232   3.766
    5LJS  SHB   1646   8.500   5.232   3.766
    5LJS  SHB   1647   9.500   5.232   3.766
    5LJS  SHA   1648  10.500   5.232   3.766
    5LJS  SHA   1649  11.500   5.232   3.766
    5LJS  SHA   1650  12.500   5.232   3.766
    5LJS  SHA   1651  13.500   5.232   3.766
    5LJS  SHA   1652  14.500   5.232   3.766
    5LJS  SHA   1653  15.500   5.232   3.766
    5LJS  SHA   1654  16.500   5.232   3.766
    5LJS  SHA   1655  17.500   5.232   3.766
    5LJS  SHA   1656  18.500   5.232   3.766
    5LJS  SHA   1657  19.500   5.232   3.766
    5LJS  SHA   1658  20.500   5.232   3.766
    5LJS  SHA   1659  21.500   5.232   3.766
    5LJS  SHB   1660  22.500   5.232   3.766
    5LJS  SHB   1661   4.000   6.098   3.766
    5LJS  SHA   1662   5.000   6.098   3.766
    5LJS  SHA   1663   6.000   6.098   3.766
    5LJS  SHA   1664   7.000   6.098   3.766
    5LJS  SHB   1665   8.000   6.098   3.766
    5LJS  SHB   1666   9.000   6.098   3.766
    5LJS  SHA   1667  10.000   6.098   3.766
    5LJS  SHA   1668  11.000   6.098   3.766
    5LJS  SHA   1669  12.000   6.098   3.766
    5LJS  SHA   1670  13.000   6.098   3.766
    5LJS  SHA   1671  14.000   6.098   3.766
    5LJS  SHA   1672  15.000   6.098   3.766
    5LJS  SHA   1673  16.000   6.098   3.766
    5LJS  SHA   1674  17.000   6.098   3.766
    5LJS  SHA   1675  18.000   6.098   3.766
    5LJS  SHA   1676  19.000   6.098   3.766
    5LJS  SHA   1677  20.000   6.098   3.766
    5LJS  SHA   1678  21.000   6.098   3.766
    5LJS  SHA   1679  22.000   6.098   3.766
    5LJS  SHA   1680  23.000   6.098   3.766
    5LJS  SHB   1681   3.500   6.964   3.766
    5LJS  SHB   1682   4.500   6.964   3.766
    5LJS  SHA   1683   5.500   6.964   3.766
    5LJS  SHA   1684   6.500   6.964   3.766
    5LJS  SHA   1685   7.500   6.964   3.766
    5LJS  SHA   1686   8.500   6.964   3.766
    5LJS  SHA   1687   9.500   6.964   3.766
    5LJS  SHA   1688  10.500   6.964   3.766
    5LJS  SHA   1689  11.500   6.964   3.766
    5LJS  SHA   1690  12.500   6.964   3.766
    5LJS  SHA   1691  13.500   6.964   3.766
    5LJS  SHA   1692  14.500   6.964   3.766
    5LJS  SHA   1693  15.500   6.964   3.766
    5LJS  SHA   1694  16.500   6.964   3.766
    5LJS  SHA   1695  17.500   6.964   3.766
    5LJS  SHA   1696  18.500   6.964   3.766
    5LJS  SHA   1697  19.500   6.964   3.766
    5LJS  SHA   1698  20.500   6.964   3.766
    5LJS  SHA   1699  21.500   6.964   3.766
    5LJS  SHA   1700  22.500   6.964   3.766
    5LJS  SHB   1701   4.000   7.830   3.766
    5LJS  SHA   1702   5.000   7.830   3.766
    5LJS  SHA   1703   6.000   7.830   3.766
    5LJS  SHA   1704   7.000   7.830   3.766
    5LJS  SHA   1705   8.000   7.830   3.766
    5LJS  SHA   1706   9.000   7.830   3.766
    5LJS  SHA   1707  10.000   7.830   3.766
    5LJS  SHA   1708  11.000   7.830   3.766
    5LJS  SHB   1709  12.000   7.830   3.766
    5LJS  SHB   1710  13.000   7.830   3.766
    5LJS  SHA   1711  14.000   7.830   3.766
    5LJS  SHA   1712  15.000   7.830   3.766
    5LJS  SHA   1713  16.000   7.830   3.766
    5LJS  SHA   1714  17.000   7.830   3.766
    5LJS  SHA   1715  18.000   7.830   3.766
    5LJS  SHB   1716  19.000   7.830   3.766
    5LJS  SHA   1717  20.000   7.830   3.766
    5LJS  SHA   1718  21.000   7.830   3.766
    5LJS  SHA   1719  22.000   7.830   3.766
    5LJS  SHA   1720  23.000   7.830   3.766
    5LJS  SHA   1721   3.500   8.696   3.766
    5LJS  SHA   1722   4.500   8.696   3.766
    5LJS  SHA   1723   5.500   8.696   3.766
    5LJS  SHA   1724   6.500   8.696   3.766
    5LJS  SHA   1725   7.500   8.696   3.766
    5LJS  SHA   1726   8.500   8.696   3.766
    5LJS  SHA   1727   9.500   8.696   3.766
    5LJS  SHA   1728  10.500   8.696   3.766
    5LJS  SHA   1729  11.500   8.696   3.766
    5LJS  SHA   1730  12.500   8.696   3.766
    5LJS  SHA   1731  13.500   8.696   3.766
    5LJS  SHA   1732  14.500   8.696   3.766
    5LJS  SHA   1733  15.500   8.696   3.766
    5LJS  SHA   1734  16.500   8.696   3.766
    5LJS  SHA   1735  17.500   8.696   3.766
    5LJS  SHA   1736  18.500   8.696   3.766
    5LJS  SHA   1737  19.500   8.696   3.766
    5LJS  SHA   1738  20.500   8.696   3.766
    5LJS  SHA   1739  21.500   8.696   3.766
    5LJS  SHA   1740  22.500   8.696   3.766
    5LJS  SHA   1741   4.000   9.562   3.766
    5LJS  SHA   1742   5.000   9.562   3.766
    5LJS  SHA   1743   6.000   9.562   3.766
    5LJS  SHA   1744   7.000   9.562   3.766
    5LJS  SHA   1745   8.000   9.562   3.766
    5LJS  SHA   1746   9.000   9.562   3.766
    5LJS  SHA   1747  10.000   9.562   3.766
    5LJS  SHA   1748  11.000   9.562   3.766
    5LJS  SHA   1749  12.000   9.562   3.766
    5LJS  SHA   1750  13.000   9.562   3.766
    5LJS  SHA   1751  14.000   9.562   3.766
    5LJS  SHA   1752  15.000   9.562   3.766
    5LJS  SHA   1753  16.000   9.562   3.766
    5LJS  SHA   1754  17.000   9.562   3.766
    5LJS  SHA   1755  18.000   9.562   3.766
    5LJS  SHA   1756  19.000   9.562   3.766
    5LJS  SHB   1757  20.000   9.562   3.766
    5LJS  SHB   1758  21.000   9.562   3.766
    5LJS  SHA   1759  22.000   9.562   3.766
    5LJS  SHA   1760  23.000   9.562   3.766
    5LJS  SHA   1761   3.500  10.428   3.766
    5LJS  SHA   1762   4.500  10.428   3.766
    5LJS  SHA   1763   5.500  10.428   3.766
    5LJS  SHA   1764   6.500  10.428   3.766
    5LJS  SHA   1765   7.500  10.428   3.766
    5LJS  SHA   1766   8.500  10.428   3.766
    5LJS  SHA   1767   9.500  10.428   3.766
    5LJS  SHA   1768  10.500  10.428   3.766
    5LJS  SHA   1769  11.500  10.428   3.766
    5LJS  SHA   1770  12.500  10.428   3.766
    5LJS  SHA   1771  13.500  10.428   3.766
    5LJS  SHA   1772  14.500  10.428   3.766
    5LJS  SHA   1773  15.500  10.428   3.766
    5LJS  SHA   1774  16.500  10.428   3.766
    5LJS  SHB   1775  17.500  10.428   3.766
    5LJS  SHA   1776  18.500  10.428   3.766
    5LJS  SHA   1777  19.500  10.428   3.766
    5LJS  SHB   1778  20.500  10.428   3.766
    5LJS  SHA   1779  21.500  10.428   3.766
    5LJS  SHA   1780  22.500  10.428   3.766
    5LJS  SHA   1781   4.000  11.294   3.766
    5LJS  SHA   1782   5.000  11.294   3.766
    5LJS  SHA   1783   6.000  11.294   3.766
    5LJS  SHA   1784   7.000  11.294   3.766
    5LJS  SHA   1785   8.000  11.294   3.766
    5LJS  SHA   1786   9.000  11.294   3.766
    5LJS  SHA   1787  10.000  11.294   3.766
    5LJS  SHA   1788  11.000  11.294   3.766
    5LJS  SHA   1789  12.000  11.294   3.766
    5LJS  SHA   1790  13.000  11.294   3.766
    5LJS  SHA   1791  14.000  11.294   3.766
    5LJS  SHA   1792  15.000  11.294   3.766
    5LJS  SHA   1793  16.000  11.294   3.766
    5LJS  SHA   1794  17.000  11.294   3.766
    5LJS  SHA   1795  18.000  11.294   3.766
    5LJS  SHA   1796  19.000  11.294   3.766
    5LJS  SHB   1797  20.000  11.294   3.766
    5LJS  SHB   1798  21.000  11.294   3.766
    5LJS  SHA   1799  22.000  11.294   3.766
    5LJS  SHA   1800  23.000  11.294   3.766
    5LJS  SHB   1801   3.500  12.160   3.766
    5LJS  SHA   1802   4.500  12.160   3.766
    5LJS  SHA   1803   5.500  12.160   3.766
    5LJS  SHA   1804   6.500  12.160   3.766
    5LJS  SHA   1805   7.500  12.160   3.766
    5LJS  SHB   1806   8.500  12.160   3.766
    5LJS  SHA   1807   9.500  12.160   3.766
    5LJS  SHA   1808  10.500  12.160   3.766
    5LJS  SHB   1809  11.500  12.160   3.766
    5LJS  SHA   1810  12.500  12.160   3.766
    5LJS  SHA   1811  13.500  12.160   3.766
    5LJS  SHA   1812  14.500  12.160   3.766
    5LJS  SHA   1813  15.500  12.160   3.766
    5LJS  SHA   1814  16.500  12.160   3.766
    5LJS  SHA   1815  17.500  12.160   3.766
    5LJS  SHA   1816  18.500  12.160   3.766
    5LJS  SHA   1817  19.500  12.160   3.766
    5LJS  SHA   1818  20.500  12.160   3.766
    5LJS  SHA   1819  21.500  12.160   3.766
    5LJS  SHA   1820  22.500  12.160   3.766
    5LJS  SHA   1821   4.000  13.026   3.766
    5LJS  SHA   1822   5.000  13.026   3.766
    5LJS  SHA   1823   6.000  13.026   3.766
    5LJS  SHA   1824   7.000  13.026   3.766
    5LJS  SHA   1825   8.000  13.026   3.766
    5LJS  SHB   1826   9.000  13.026   3.766
    5LJS  SHA   1827  10.000  13.026   3.766
    5LJS  SHB   1828  11.000  13.026   3.766
    5LJS  SHB   1829  12.000  13.026   3.766
    5LJS  SHA   1830  13.000  13.026   3.766
    5LJS  SHA   1831  14.000  13.026   3.766
    5LJS  SHA   1832  15.000  13.026   3.766
    5LJS  SHB   1833  16.000  13.026   3.766
    5LJS  SHA   1834  17.000  13.026   3.766
    5LJS  SHB   1835  18.000  13.026   3.766
    5LJS  SHB   1836  19.000  13.026   3.766
    5LJS  SHA   1837  20.000  13.026   3.766
    5LJS  SHA   1838  21.000  13.026   3.766
    5LJS  SHA   1839  22.000  13.026   3.766
    5LJS  SHA   1840  23.000  13.026   3.766
    5LJS  SHA   1841   3.500  13.892   3.766
    5LJS  SHA   1842   4.500  13.892   3.766
    5LJS  SHB   1843   5.500  13.892   3.766
    5LJS  SHA   1844   6.500  13.892   3.766
    5LJS  SHA   1845   7.500  13.892   3.766
    5LJS  SHA   1846   8.500  13.892   3.766
    5LJS  SHA   1847   9.500  13.892   3.766
    5LJS  SHA   1848  10.500  13.892   3.766
    5LJS  SHA   1849  11.500  13.892   3.766
    5LJS  SHA   1850  12.500  13.892   3.766
    5LJS  SHA   1851  13.500  13.892   3.766
    5LJS  SHA   1852  14.500  13.892   3.766
    5LJS  SHB   1853  15.500  13.892   3.766
    5LJS  SHA   1854  16.500  13.892   3.766
    5LJS  SHB   1855  17.500  13.892   3.766
    5LJS  SHB   1856  18.500  13.892   3.766
    5LJS  SHA   1857  19.500  13.892   3.766
    5LJS  SHA   1858  20.500  13.892   3.766
    5LJS  SHA   1859  21.500  13.892   3.766
    5LJS  SHA   1860  22.500  13.892   3.766
    5LJS  SHA   1861   4.000  14.758   3.766
    5LJS  SHA   1862   5.000  14.758   3.766
    5LJS  SHA   1863   6.000  14.758   3.766
    5LJS  SHA   1864   7.000  14.758   3.766
    5LJS  SHB   1865   8.000  14.758   3.766
    5LJS  SHB   1866   9.000  14.758   3.766
    5LJS  SHB   1867  10.000  14.758   3.766
    5LJS  SHB   1868  11.000  14.758   3.766
    5LJS  SHB   1869  12.000  14.758   3.766
    5LJS  SHA   1870  13.000  14.758   3.766
    5LJS  SHA   1871  14.000  14.758   3.766
    5LJS  SHA   1872  15.000  14.758   3.766
    5LJS  SHB   1873  16.000  14.758   3.766
    5LJS  SHA   1874  17.000  14.758   3.766
    5LJS  SHA   1875  18.000  14.758   3.766
    5LJS  SHB   1876  19.000  14.758   3.766
    5LJS  SHA   1877  20.000  14.758   3.766
    5LJS  SHB   1878  21.000  14.758   3.766
    5LJS  SHA   1879  22.000  14.758   3.766
    5LJS  SHB   1880  23.000  14.758   3.766
    5LJS  SHA   1881   3.500  15.624   3.766
    5LJS  SHA   1882   4.500  15.624   3.766
    5LJS  SHB   1883   5.500  15.624   3.766
    5LJS  SHB   1884   6.500  15.624   3.766
    5LJS  SHA   1885   7.500  15.624   3.766
    5LJS  SHA   1886   8.500  15.624   3.766
    5LJS  SHB   1887   9.500  15.624   3.766
    5LJS  SHB   1888  10.500  15.624   3.766
    5LJS  SHB   1889  11.500  15.624   3.766
    5LJS  SHB   1890  12.500  15.624   3.766
    5LJS  SHB   1891  13.500  15.624   3.766
    5LJS  SHB   1892  14.500  15.624   3.766
    5LJS  SHA   1893  15.500  15.624   3.766
    5LJS  SHA   1894  16.500  15.624   3.766
    5LJS  SHA   1895  17.500  15.624   3.766
    5LJS  SHB   1896  18.500  15.624   3.766
    5LJS  SHB   1897  19.500  15.624   3.766
    5LJS  SHA   1898  20.500  15.624   3.766
    5LJS  SHA   1899  21.500  15.624   3.766
    5LJS  SHA   1900  22.500  15.624   3.766
    5LJS  SHA   1901   4.000  16.490   3.766
    5LJS  SHA   1902   5.000  16.490   3.766
    5LJS  SHB   1903   6.000  16.490   3.766
    5LJS  SHB   1904   7.000  16.490   3.766
    5LJS  SHA   1905   8.000  16.490   3.766
    5LJS  SHA   1906   9.000  16.490   3.766
    5LJS  SHB   1907  10.000  16.490   3.766
    5LJS  SHB   1908  11.000  16.490   3.766
    5LJS  SHA   1909  12.000  16.490   3.766
    5LJS  SHA   1910  13.000  16.490   3.766
    5LJS  SHA   1911  14.000  16.490   3.766
    5LJS  SHA   1912  15.000  16.490   3.766
    5LJS  SHA   1913  16.000  16.490   3.766
    5LJS  SHA   1914  17.000  16.490   3.766
    5LJS  SHA   1915  18.000  16.490   3.766
    5LJS  SHA   1916  19.000  16.490   3.766
    5LJS  SHA   1917  20.000  16.490   3.766
    5LJS  SHA   1918  21.000  16.490   3.766
    5LJS  SHA   1919  22.000  16.490   3.766
    5LJS  SHA   1920  23.000  16.490   3.766
    5LJS  SHA   1921   3.500  17.356   3.766
    5LJS  SHA   1922   4.500  17.356   3.766
    5LJS  SHA   1923   5.500  17.356   3.766
    5LJS  SHB   1924   6.500  17.356   3.766
    5LJS  SHA   1925   7.500  17.356   3.766
    5LJS  SHA   1926   8.500  17.356   3.766
    5LJS  SHA   1927   9.500  17.356   3.766
    5LJS  SHB   1928  10.500  17.356   3.766
    5LJS  SHA   1929  11.500  17.356   3.766
    5LJS  SHA   1930  12.500  17.356   3.766
    5LJS  SHA   1931  13.500  17.356   3.766
    5LJS  SHA   1932  14.500  17.356   3.766
    5LJS  SHA   1933  15.500  17.356   3.766
    5LJS  SHA   1934  16.500  17.356   3.766
    5LJS  SHA   1935  17.500  17.356   3.766
    5LJS  SHA   1936  18.500  17.356   3.766
    5LJS  SHA   1937  19.500  17.356   3.766
    5LJS  SHA   1938  20.500  17.356   3.766
    5LJS  SHA   1939  21.500  17.356   3.766
    5LJS  SHA   1940  22.500  17.356   3.766
    5LJS  SHA   1941   4.000  18.222   3.766
    5LJS  SHA   1942   5.000  18.222   3.766
    5LJS  SHA   1943   6.000  18.222   3.766
    5LJS  SHB   1944   7.000  18.222   3.766
    5LJS  SHB   1945   8.000  18.222   3.766
    5LJS  SHA   1946   9.000  18.222   3.766
    5LJS  SHA   1947  10.000  18.222   3.766
    5LJS  SHA   1948  11.000  18.222   3.766
    5LJS  SHA   1949  12.000  18.222   3.766
    5LJS  SHA   1950  13.000  18.222   3.766
    5LJS  SHA   1951  14.000  18.222   3.766
    5LJS  SHA   1952  15.000  18.222   3.766
    5LJS  SHA   1953  16.000  18.222   3.766
    5LJS  SHA   1954  17.000  18.222   3.766
    5LJS  SHA   1955  18.000  18.222   3.766
    5LJS  SHA   1956  19.000  18.222   3.766
    5LJS  SHA   1957  20.000  18.222   3.766
    5LJS  SHA   1958  21.000  18.222   3.766
    5LJS  SHA   1959  22.000  18.222   3.766
    5LJS  SHA   1960  23.000  18.222   3.766
    5LJS  SHA   1961   3.500  19.088   3.766
    5LJS  SHA   1962   4.500  19.088   3.766
    5LJS  SHA   1963   5.500  19.088   3.766
    5LJS  SHA   1964   6.500  19.088   3.766
    5LJS  SHA   1965   7.500  19.088   3.766
    5LJS  SHA   1966   8.500  19.088   3.766
    5LJS  SHA   1967   9.500  19.088   3.766
    5LJS  SHA   1968  10.500  19.088   3.766
    5LJS  SHA   1969  11.500  19.088   3.766
    5LJS  SHB   1970  12.500  19.088   3.766
    5LJS  SHA   1971  13.500  19.088   3.766
    5LJS  SHA   1972  14.500  19.088   3.766
    5LJS  SHA   1973  15.500  19.088   3.766
    5LJS  SHA   1974  16.500  19.088   3.766
    5LJS  SHA   1975  17.500  19.088   3.766
    5LJS  SHA   1976  18.500  19.088   3.766
    5LJS  SHA   1977  19.500  19.088   3.766
    5LJS  SHA   1978  20.500  19.088   3.766
    5LJS  SHB   1979  21.500  19.088   3.766
    5LJS  SHB   1980  22.500  19.088   3.766
    5LJS  SHA   1981   4.000  19.954   3.766
    5LJS  SHA   1982   5.000  19.954   3.766
    5LJS  SHA   1983   6.000  19.954   3.766
    5LJS  SHB   1984   7.000  19.954   3.766
    5LJS  SHB   1985   8.000  19.954   3.766
    5LJS  SHA   1986   9.000  19.954   3.766
    5LJS  SHA   1987  10.000  19.954   3.766
    5LJS  SHA   1988  11.000  19.954   3.766
    5LJS  SHA   1989  12.000  19.954   3.766
    5LJS  SHA   1990  13.000  19.954   3.766
    5LJS  SHA   1991  14.000  19.954   3.766
    5LJS  SHA   1992  15.000  19.954   3.766
    5LJS  SHA   1993  16.000  19.954   3.766
    5LJS  SHA   1994  17.000  19.954   3.766
    5LJS  SHA   1995  18.000  19.954   3.766
    5LJS  SHA   1996  19.000  19.954   3.766
    5LJS  SHA   1997  20.000  19.954   3.766
    5LJS  SHA   1998  21.000  19.954   3.766
    5LJS  SHB   1999  22.000  19.954   3.766
    5LJS  SHB   2000  23.000  19.954   3.766
 27.000 23.743 16.266