[ moleculetype ]
; Name nrexcl
LJQ	1

[ atoms ]
; nr type resnr resid atom cgnr charge mass
	1	KSH	1	LJB	SHK	1	0.000	1.000
	2	KSH	1	LJB	SHK	2	0.000	1.000
	3	KSH	1	LJB	SHK	3	0.000	1.000
	4	KSH	1	LJB	SHK	4	0.000	1.000
	5	KSH	1	LJB	SHK	5	0.000	1.000
	6	KSH	1	LJB	SHK	6	0.000	1.000
	7	KSH	1	LJB	SHK	7	0.000	1.000
	8	KSH	1	LJB	SHK	8	0.000	1.000
	9	KSH	1	LJB	SHK	9	0.000	1.000
	10	KSH	1	LJB	SHK	10	0.000	1.000
	11	KSH	1	LJB	SHK	11	0.000	1.000
	12	KSH	1	LJB	SHK	12	0.000	1.000
	13	KSH	1	LJB	SHK	13	0.000	1.000
	14	KSH	1	LJB	SHK	14	0.000	1.000
	15	KSH	1	LJB	SHK	15	0.000	1.000
	16	KSH	1	LJB	SHK	16	0.000	1.000
	17	KSH	1	LJB	SHK	17	0.000	1.000
	18	KSH	1	LJB	SHK	18	0.000	1.000
	19	KSH	1	LJB	SHK	19	0.000	1.000
	20	KSH	1	LJB	SHK	20	0.000	1.000
	21	KSH	1	LJB	SHK	21	0.000	1.000
	22	KSH	1	LJB	SHK	22	0.000	1.000
	23	KSH	1	LJB	SHK	23	0.000	1.000
	24	KSH	1	LJB	SHK	24	0.000	1.000
	25	KSH	1	LJB	SHK	25	0.000	1.000
	26	KSH	1	LJB	SHK	26	0.000	1.000
	27	KSH	1	LJB	SHK	27	0.000	1.000
	28	KSH	1	LJB	SHK	28	0.000	1.000
	29	KSH	1	LJB	SHK	29	0.000	1.000
	30	KSH	1	LJB	SHK	30	0.000	1.000
	31	KSH	1	LJB	SHK	31	0.000	1.000
	32	KSH	1	LJB	SHK	32	0.000	1.000
	33	KSH	1	LJB	SHK	33	0.000	1.000
	34	KSH	1	LJB	SHK	34	0.000	1.000
	35	KSH	1	LJB	SHK	35	0.000	1.000
	36	KSH	1	LJB	SHK	36	0.000	1.000
	37	KSH	1	LJB	SHK	37	0.000	1.000
	38	KSH	1	LJB	SHK	38	0.000	1.000
	39	KSH	1	LJB	SHK	39	0.000	1.000
	40	KSH	1	LJB	SHK	40	0.000	1.000
	41	KSH	1	LJB	SHK	41	0.000	1.000
	42	KSH	1	LJB	SHK	42	0.000	1.000
	43	KSH	1	LJB	SHK	43	0.000	1.000
	44	KSH	1	LJB	SHK	44	0.000	1.000
	45	KSH	1	LJB	SHK	45	0.000	1.000
	46	KSH	1	LJB	SHK	46	0.000	1.000
	47	KSH	1	LJB	SHK	47	0.000	1.000
	48	KSH	1	LJB	SHK	48	0.000	1.000
	49	KSH	1	LJB	SHK	49	0.000	1.000
	50	KSH	1	LJB	SHK	50	0.000	1.000
	51	KSH	1	LJB	SHK	51	0.000	1.000
	52	KSH	1	LJB	SHK	52	0.000	1.000
	53	KSH	1	LJB	SHK	53	0.000	1.000
	54	KSH	1	LJB	SHK	54	0.000	1.000
	55	KSH	1	LJB	SHK	55	0.000	1.000
	56	KSH	1	LJB	SHK	56	0.000	1.000
	57	KSH	1	LJB	SHK	57	0.000	1.000
	58	KSH	1	LJB	SHK	58	0.000	1.000
	59	KSH	1	LJB	SHK	59	0.000	1.000
	60	KSH	1	LJB	SHK	60	0.000	1.000
	61	KSH	1	LJB	SHK	61	0.000	1.000
	62	KSH	1	LJB	SHK	62	0.000	1.000
	63	KSH	1	LJB	SHK	63	0.000	1.000
	64	KSH	1	LJB	SHK	64	0.000	1.000
	65	KSH	1	LJB	SHK	65	0.000	1.000
	66	KSH	1	LJB	SHK	66	0.000	1.000
	67	KSH	1	LJB	SHK	67	0.000	1.000
	68	KSH	1	LJB	SHK	68	0.000	1.000
	69	KSH	1	LJB	SHK	69	0.000	1.000
	70	KSH	1	LJB	SHK	70	0.000	1.000
	71	KSH	1	LJB	SHK	71	0.000	1.000
	72	KSH	1	LJB	SHK	72	0.000	1.000
	73	KSH	1	LJB	SHK	73	0.000	1.000
	74	KSH	1	LJB	SHK	74	0.000	1.000
	75	KSH	1	LJB	SHK	75	0.000	1.000
	76	KSH	1	LJB	SHK	76	0.000	1.000
	77	KSH	1	LJB	SHK	77	0.000	1.000
	78	KSH	1	LJB	SHK	78	0.000	1.000
	79	KSH	1	LJB	SHK	79	0.000	1.000
	80	KSH	1	LJB	SHK	80	0.000	1.000
	81	KSH	1	LJB	SHK	81	0.000	1.000
	82	KSH	1	LJB	SHK	82	0.000	1.000
	83	KSH	1	LJB	SHK	83	0.000	1.000
	84	KSH	1	LJB	SHK	84	0.000	1.000
	85	KSH	1	LJB	SHK	85	0.000	1.000
	86	KSH	1	LJB	SHK	86	0.000	1.000
	87	KSH	1	LJB	SHK	87	0.000	1.000
	88	KSH	1	LJB	SHK	88	0.000	1.000
	89	KSH	1	LJB	SHK	89	0.000	1.000
	90	KSH	1	LJB	SHK	90	0.000	1.000
	91	KSH	1	LJB	SHK	91	0.000	1.000
	92	KSH	1	LJB	SHK	92	0.000	1.000
	93	KSH	1	LJB	SHK	93	0.000	1.000
	94	KSH	1	LJB	SHK	94	0.000	1.000
	95	KSH	1	LJB	SHK	95	0.000	1.000
	96	KSH	1	LJB	SHK	96	0.000	1.000
	97	KSH	1	LJB	SHK	97	0.000	1.000
	98	KSH	1	LJB	SHK	98	0.000	1.000
	99	KSH	1	LJB	SHK	99	0.000	1.000
	100	KSH	1	LJB	SHK	100	0.000	1.000
	101	KSH	1	LJB	SHK	101	0.000	1.000
	102	KSH	1	LJB	SHK	102	0.000	1.000
	103	KSH	1	LJB	SHK	103	0.000	1.000
	104	KSH	1	LJB	SHK	104	0.000	1.000
	105	KSH	1	LJB	SHK	105	0.000	1.000
	106	KSH	1	LJB	SHK	106	0.000	1.000
	107	KSH	1	LJB	SHK	107	0.000	1.000
	108	KSH	1	LJB	SHK	108	0.000	1.000
	109	KSH	1	LJB	SHK	109	0.000	1.000
	110	KSH	1	LJB	SHK	110	0.000	1.000
	111	KSH	1	LJB	SHK	111	0.000	1.000
	112	KSH	1	LJB	SHK	112	0.000	1.000
	113	KSH	1	LJB	SHK	113	0.000	1.000
	114	KSH	1	LJB	SHK	114	0.000	1.000
	115	KSH	1	LJB	SHK	115	0.000	1.000
	116	KSH	1	LJB	SHK	116	0.000	1.000
	117	KSH	1	LJB	SHK	117	0.000	1.000
	118	KSH	1	LJB	SHK	118	0.000	1.000
	119	KSH	1	LJB	SHK	119	0.000	1.000
	120	KSH	1	LJB	SHK	120	0.000	1.000
	121	KSH	1	LJB	SHK	121	0.000	1.000
	122	KSH	1	LJB	SHK	122	0.000	1.000
	123	KSH	1	LJB	SHK	123	0.000	1.000
	124	KSH	1	LJB	SHK	124	0.000	1.000
	125	KSH	1	LJB	SHK	125	0.000	1.000
	126	KSH	1	LJB	SHK	126	0.000	1.000
	127	KSH	1	LJB	SHK	127	0.000	1.000
	128	KSH	1	LJB	SHK	128	0.000	1.000
	129	KSH	1	LJB	SHK	129	0.000	1.000
	130	KSH	1	LJB	SHK	130	0.000	1.000
	131	KSH	1	LJB	SHK	131	0.000	1.000
	132	KSH	1	LJB	SHK	132	0.000	1.000
	133	KSH	1	LJB	SHK	133	0.000	1.000
	134	KSH	1	LJB	SHK	134	0.000	1.000
	135	KSH	1	LJB	SHK	135	0.000	1.000
	136	KSH	1	LJB	SHK	136	0.000	1.000
	137	KSH	1	LJB	SHK	137	0.000	1.000
	138	KSH	1	LJB	SHK	138	0.000	1.000
	139	KSH	1	LJB	SHK	139	0.000	1.000
	140	KSH	1	LJB	SHK	140	0.000	1.000
	141	KSH	1	LJB	SHK	141	0.000	1.000
	142	KSH	1	LJB	SHK	142	0.000	1.000
	143	KSH	1	LJB	SHK	143	0.000	1.000
	144	KSH	1	LJB	SHK	144	0.000	1.000
	145	KSH	1	LJB	SHK	145	0.000	1.000
	146	KSH	1	LJB	SHK	146	0.000	1.000
	147	KSH	1	LJB	SHK	147	0.000	1.000
	148	KSH	1	LJB	SHK	148	0.000	1.000
	149	KSH	1	LJB	SHK	149	0.000	1.000
	150	KSH	1	LJB	SHK	150	0.000	1.000
	151	KSH	1	LJB	SHK	151	0.000	1.000
	152	KSH	1	LJB	SHK	152	0.000	1.000
	153	KSH	1	LJB	SHK	153	0.000	1.000
	154	KSH	1	LJB	SHK	154	0.000	1.000
	155	KSH	1	LJB	SHK	155	0.000	1.000
	156	KSH	1	LJB	SHK	156	0.000	1.000
	157	KSH	1	LJB	SHK	157	0.000	1.000
	158	KSH	1	LJB	SHK	158	0.000	1.000
	159	KSH	1	LJB	SHK	159	0.000	1.000
	160	KSH	1	LJB	SHK	160	0.000	1.000
	161	KSH	1	LJB	SHK	161	0.000	1.000
	162	KSH	1	LJB	SHK	162	0.000	1.000
	163	KSH	1	LJB	SHK	163	0.000	1.000
	164	KSH	1	LJB	SHK	164	0.000	1.000
	165	KSH	1	LJB	SHK	165	0.000	1.000
	166	KSH	1	LJB	SHK	166	0.000	1.000
	167	KSH	1	LJB	SHK	167	0.000	1.000
	168	KSH	1	LJB	SHK	168	0.000	1.000
	169	KSH	1	LJB	SHK	169	0.000	1.000
	170	KSH	1	LJB	SHK	170	0.000	1.000
	171	KSH	1	LJB	SHK	171	0.000	1.000
	172	KSH	1	LJB	SHK	172	0.000	1.000
	173	KSH	1	LJB	SHK	173	0.000	1.000
	174	KSH	1	LJB	SHK	174	0.000	1.000
	175	KSH	1	LJB	SHK	175	0.000	1.000
	176	KSH	1	LJB	SHK	176	0.000	1.000
	177	KSH	1	LJB	SHK	177	0.000	1.000
	178	KSH	1	LJB	SHK	178	0.000	1.000
	179	KSH	1	LJB	SHK	179	0.000	1.000
	180	KSH	1	LJB	SHK	180	0.000	1.000
	181	KSH	1	LJB	SHK	181	0.000	1.000
	182	KSH	1	LJB	SHK	182	0.000	1.000
	183	KSH	1	LJB	SHK	183	0.000	1.000
	184	KSH	1	LJB	SHK	184	0.000	1.000
	185	KSH	1	LJB	SHK	185	0.000	1.000
	186	KSH	1	LJB	SHK	186	0.000	1.000
	187	KSH	1	LJB	SHK	187	0.000	1.000
	188	KSH	1	LJB	SHK	188	0.000	1.000
	189	KSH	1	LJB	SHK	189	0.000	1.000
	190	KSH	1	LJB	SHK	190	0.000	1.000
	191	KSH	1	LJB	SHK	191	0.000	1.000
	192	KSH	1	LJB	SHK	192	0.000	1.000
	193	KSH	1	LJB	SHK	193	0.000	1.000
	194	KSH	1	LJB	SHK	194	0.000	1.000
	195	KSH	1	LJB	SHK	195	0.000	1.000
	196	KSH	1	LJB	SHK	196	0.000	1.000
	197	KSH	1	LJB	SHK	197	0.000	1.000
	198	KSH	1	LJB	SHK	198	0.000	1.000
	199	KSH	1	LJB	SHK	199	0.000	1.000
	200	KSH	1	LJB	SHK	200	0.000	1.000
	201	KSH	1	LJB	SHK	201	0.000	1.000
	202	KSH	1	LJB	SHK	202	0.000	1.000
	203	KSH	1	LJB	SHK	203	0.000	1.000
	204	KSH	1	LJB	SHK	204	0.000	1.000
	205	KSH	1	LJB	SHK	205	0.000	1.000
	206	KSH	1	LJB	SHK	206	0.000	1.000
	207	KSH	1	LJB	SHK	207	0.000	1.000
	208	KSH	1	LJB	SHK	208	0.000	1.000
	209	KSH	1	LJB	SHK	209	0.000	1.000
	210	KSH	1	LJB	SHK	210	0.000	1.000
	211	KSH	1	LJB	SHK	211	0.000	1.000
	212	KSH	1	LJB	SHK	212	0.000	1.000
	213	KSH	1	LJB	SHK	213	0.000	1.000
	214	KSH	1	LJB	SHK	214	0.000	1.000
	215	KSH	1	LJB	SHK	215	0.000	1.000
	216	KSH	1	LJB	SHK	216	0.000	1.000
	217	KSH	1	LJB	SHK	217	0.000	1.000
	218	KSH	1	LJB	SHK	218	0.000	1.000
	219	KSH	1	LJB	SHK	219	0.000	1.000
	220	KSH	1	LJB	SHK	220	0.000	1.000
	221	KSH	1	LJB	SHK	221	0.000	1.000
	222	KSH	1	LJB	SHK	222	0.000	1.000
	223	KSH	1	LJB	SHK	223	0.000	1.000
	224	KSH	1	LJB	SHK	224	0.000	1.000
	225	KSH	1	LJB	SHK	225	0.000	1.000
	226	KSH	1	LJB	SHK	226	0.000	1.000
	227	KSH	1	LJB	SHK	227	0.000	1.000
	228	KSH	1	LJB	SHK	228	0.000	1.000
	229	KSH	1	LJB	SHK	229	0.000	1.000
	230	KSH	1	LJB	SHK	230	0.000	1.000
	231	KSH	1	LJB	SHK	231	0.000	1.000
	232	KSH	1	LJB	SHK	232	0.000	1.000
	233	KSH	1	LJB	SHK	233	0.000	1.000
	234	KSH	1	LJB	SHK	234	0.000	1.000
	235	KSH	1	LJB	SHK	235	0.000	1.000
	236	KSH	1	LJB	SHK	236	0.000	1.000
	237	KSH	1	LJB	SHK	237	0.000	1.000
	238	KSH	1	LJB	SHK	238	0.000	1.000
	239	KSH	1	LJB	SHK	239	0.000	1.000
	240	KSH	1	LJB	SHK	240	0.000	1.000
	241	KSH	1	LJB	SHK	241	0.000	1.000
	242	KSH	1	LJB	SHK	242	0.000	1.000
	243	KSH	1	LJB	SHK	243	0.000	1.000
	244	KSH	1	LJB	SHK	244	0.000	1.000
	245	KSH	1	LJB	SHK	245	0.000	1.000
	246	KSH	1	LJB	SHK	246	0.000	1.000
	247	KSH	1	LJB	SHK	247	0.000	1.000
	248	KSH	1	LJB	SHK	248	0.000	1.000
	249	KSH	1	LJB	SHK	249	0.000	1.000
	250	KSH	1	LJB	SHK	250	0.000	1.000
	251	KSH	1	LJB	SHK	251	0.000	1.000
	252	KSH	1	LJB	SHK	252	0.000	1.000
	253	KSH	1	LJB	SHK	253	0.000	1.000
	254	KSH	1	LJB	SHK	254	0.000	1.000
	255	KSH	1	LJB	SHK	255	0.000	1.000
	256	KSH	1	LJB	SHK	256	0.000	1.000
	257	KSH	1	LJB	SHK	257	0.000	1.000
	258	KSH	1	LJB	SHK	258	0.000	1.000
	259	KSH	1	LJB	SHK	259	0.000	1.000
	260	KSH	1	LJB	SHK	260	0.000	1.000
	261	KSH	1	LJB	SHK	261	0.000	1.000
	262	KSH	1	LJB	SHK	262	0.000	1.000
	263	KSH	1	LJB	SHK	263	0.000	1.000
	264	KSH	1	LJB	SHK	264	0.000	1.000
	265	KSH	1	LJB	SHK	265	0.000	1.000
	266	KSH	1	LJB	SHK	266	0.000	1.000
	267	KSH	1	LJB	SHK	267	0.000	1.000
	268	KSH	1	LJB	SHK	268	0.000	1.000
	269	KSH	1	LJB	SHK	269	0.000	1.000
	270	KSH	1	LJB	SHK	270	0.000	1.000
	271	KSH	1	LJB	SHK	271	0.000	1.000
	272	KSH	1	LJB	SHK	272	0.000	1.000
	273	KSH	1	LJB	SHK	273	0.000	1.000
	274	KSH	1	LJB	SHK	274	0.000	1.000
	275	KSH	1	LJB	SHK	275	0.000	1.000
	276	KSH	1	LJB	SHK	276	0.000	1.000
	277	KSH	1	LJB	SHK	277	0.000	1.000
	278	KSH	1	LJB	SHK	278	0.000	1.000
	279	KSH	1	LJB	SHK	279	0.000	1.000
	280	KSH	1	LJB	SHK	280	0.000	1.000
	281	KSH	1	LJB	SHK	281	0.000	1.000
	282	KSH	1	LJB	SHK	282	0.000	1.000
	283	KSH	1	LJB	SHK	283	0.000	1.000
	284	KSH	1	LJB	SHK	284	0.000	1.000
	285	KSH	1	LJB	SHK	285	0.000	1.000
	286	KSH	1	LJB	SHK	286	0.000	1.000
	287	KSH	1	LJB	SHK	287	0.000	1.000
	288	KSH	1	LJB	SHK	288	0.000	1.000
	289	KSH	1	LJB	SHK	289	0.000	1.000
	290	KSH	1	LJB	SHK	290	0.000	1.000
	291	KSH	1	LJB	SHK	291	0.000	1.000
	292	KSH	1	LJB	SHK	292	0.000	1.000
	293	KSH	1	LJB	SHK	293	0.000	1.000
	294	KSH	1	LJB	SHK	294	0.000	1.000
	295	KSH	1	LJB	SHK	295	0.000	1.000
	296	KSH	1	LJB	SHK	296	0.000	1.000
	297	KSH	1	LJB	SHK	297	0.000	1.000
	298	KSH	1	LJB	SHK	298	0.000	1.000
	299	KSH	1	LJB	SHK	299	0.000	1.000
	300	KSH	1	LJB	SHK	300	0.000	1.000
	301	KSH	1	LJB	SHK	301	0.000	1.000
	302	KSH	1	LJB	SHK	302	0.000	1.000
	303	KSH	1	LJB	SHK	303	0.000	1.000
	304	KSH	1	LJB	SHK	304	0.000	1.000
	305	KSH	1	LJB	SHK	305	0.000	1.000
	306	KSH	1	LJB	SHK	306	0.000	1.000
	307	KSH	1	LJB	SHK	307	0.000	1.000
	308	KSH	1	LJB	SHK	308	0.000	1.000
	309	KSH	1	LJB	SHK	309	0.000	1.000
	310	KSH	1	LJB	SHK	310	0.000	1.000
	311	KSH	1	LJB	SHK	311	0.000	1.000
	312	KSH	1	LJB	SHK	312	0.000	1.000
	313	KSH	1	LJB	SHK	313	0.000	1.000
	314	KSH	1	LJB	SHK	314	0.000	1.000
	315	KSH	1	LJB	SHK	315	0.000	1.000
	316	KSH	1	LJB	SHK	316	0.000	1.000
	317	KSH	1	LJB	SHK	317	0.000	1.000
	318	KSH	1	LJB	SHK	318	0.000	1.000
	319	KSH	1	LJB	SHK	319	0.000	1.000
	320	KSH	1	LJB	SHK	320	0.000	1.000
	321	KSH	1	LJB	SHK	321	0.000	1.000
	322	KSH	1	LJB	SHK	322	0.000	1.000
	323	KSH	1	LJB	SHK	323	0.000	1.000
	324	KSH	1	LJB	SHK	324	0.000	1.000
	325	KSH	1	LJB	SHK	325	0.000	1.000
	326	KSH	1	LJB	SHK	326	0.000	1.000
	327	KSH	1	LJB	SHK	327	0.000	1.000
	328	KSH	1	LJB	SHK	328	0.000	1.000
	329	KSH	1	LJB	SHK	329	0.000	1.000
	330	KSH	1	LJB	SHK	330	0.000	1.000
	331	KSH	1	LJB	SHK	331	0.000	1.000
	332	KSH	1	LJB	SHK	332	0.000	1.000
	333	KSH	1	LJB	SHK	333	0.000	1.000
	334	KSH	1	LJB	SHK	334	0.000	1.000
	335	KSH	1	LJB	SHK	335	0.000	1.000
	336	KSH	1	LJB	SHK	336	0.000	1.000
	337	KSH	1	LJB	SHK	337	0.000	1.000
	338	KSH	1	LJB	SHK	338	0.000	1.000
	339	KSH	1	LJB	SHK	339	0.000	1.000
	340	KSH	1	LJB	SHK	340	0.000	1.000
	341	KSH	1	LJB	SHK	341	0.000	1.000
	342	KSH	1	LJB	SHK	342	0.000	1.000
	343	KSH	1	LJB	SHK	343	0.000	1.000
	344	KSH	1	LJB	SHK	344	0.000	1.000
	345	KSH	1	LJB	SHK	345	0.000	1.000
	346	KSH	1	LJB	SHK	346	0.000	1.000
	347	KSH	1	LJB	SHK	347	0.000	1.000
	348	KSH	1	LJB	SHK	348	0.000	1.000
	349	KSH	1	LJB	SHK	349	0.000	1.000
	350	KSH	1	LJB	SHK	350	0.000	1.000
	351	KSH	1	LJB	SHK	351	0.000	1.000
	352	KSH	1	LJB	SHK	352	0.000	1.000
	353	KSH	1	LJB	SHK	353	0.000	1.000
	354	KSH	1	LJB	SHK	354	0.000	1.000
	355	KSH	1	LJB	SHK	355	0.000	1.000
	356	KSH	1	LJB	SHK	356	0.000	1.000
	357	KSH	1	LJB	SHK	357	0.000	1.000
	358	KSH	1	LJB	SHK	358	0.000	1.000
	359	KSH	1	LJB	SHK	359	0.000	1.000
	360	KSH	1	LJB	SHK	360	0.000	1.000
	361	KSH	1	LJB	SHK	361	0.000	1.000
	362	KSH	1	LJB	SHK	362	0.000	1.000
	363	KSH	1	LJB	SHK	363	0.000	1.000
	364	KSH	1	LJB	SHK	364	0.000	1.000
	365	KSH	1	LJB	SHK	365	0.000	1.000
	366	KSH	1	LJB	SHK	366	0.000	1.000
	367	KSH	1	LJB	SHK	367	0.000	1.000
	368	KSH	1	LJB	SHK	368	0.000	1.000
	369	KSH	1	LJB	SHK	369	0.000	1.000
	370	KSH	1	LJB	SHK	370	0.000	1.000
	371	KSH	1	LJB	SHK	371	0.000	1.000
	372	KSH	1	LJB	SHK	372	0.000	1.000
	373	KSH	1	LJB	SHK	373	0.000	1.000
	374	KSH	1	LJB	SHK	374	0.000	1.000
	375	KSH	1	LJB	SHK	375	0.000	1.000
	376	KSH	1	LJB	SHK	376	0.000	1.000
	377	KSH	1	LJB	SHK	377	0.000	1.000
	378	KSH	1	LJB	SHK	378	0.000	1.000
	379	KSH	1	LJB	SHK	379	0.000	1.000
	380	KSH	1	LJB	SHK	380	0.000	1.000
	381	KSH	1	LJB	SHK	381	0.000	1.000
	382	KSH	1	LJB	SHK	382	0.000	1.000
	383	KSH	1	LJB	SHK	383	0.000	1.000
	384	KSH	1	LJB	SHK	384	0.000	1.000
	385	KSH	1	LJB	SHK	385	0.000	1.000
	386	KSH	1	LJB	SHK	386	0.000	1.000
	387	KSH	1	LJB	SHK	387	0.000	1.000
	388	KSH	1	LJB	SHK	388	0.000	1.000
	389	KSH	1	LJB	SHK	389	0.000	1.000
	390	KSH	1	LJB	SHK	390	0.000	1.000
	391	KSH	1	LJB	SHK	391	0.000	1.000
	392	KSH	1	LJB	SHK	392	0.000	1.000
	393	KSH	1	LJB	SHK	393	0.000	1.000
	394	KSH	1	LJB	SHK	394	0.000	1.000
	395	KSH	1	LJB	SHK	395	0.000	1.000
	396	KSH	1	LJB	SHK	396	0.000	1.000
	397	KSH	1	LJB	SHK	397	0.000	1.000
	398	KSH	1	LJB	SHK	398	0.000	1.000
	399	KSH	1	LJB	SHK	399	0.000	1.000
	400	KSH	1	LJB	SHK	400	0.000	1.000
	401	KSH	2	LJB	SHK	401	0.000	1.000
	402	KSH	2	LJB	SHK	402	0.000	1.000
	403	KSH	2	LJB	SHK	403	0.000	1.000
	404	KSH	2	LJB	SHK	404	0.000	1.000
	405	KSH	2	LJB	SHK	405	0.000	1.000
	406	KSH	2	LJB	SHK	406	0.000	1.000
	407	KSH	2	LJB	SHK	407	0.000	1.000
	408	KSH	2	LJB	SHK	408	0.000	1.000
	409	KSH	2	LJB	SHK	409	0.000	1.000
	410	KSH	2	LJB	SHK	410	0.000	1.000
	411	KSH	2	LJB	SHK	411	0.000	1.000
	412	KSH	2	LJB	SHK	412	0.000	1.000
	413	KSH	2	LJB	SHK	413	0.000	1.000
	414	KSH	2	LJB	SHK	414	0.000	1.000
	415	KSH	2	LJB	SHK	415	0.000	1.000
	416	KSH	2	LJB	SHK	416	0.000	1.000
	417	KSH	2	LJB	SHK	417	0.000	1.000
	418	KSH	2	LJB	SHK	418	0.000	1.000
	419	KSH	2	LJB	SHK	419	0.000	1.000
	420	KSH	2	LJB	SHK	420	0.000	1.000
	421	KSH	2	LJB	SHK	421	0.000	1.000
	422	KSH	2	LJB	SHK	422	0.000	1.000
	423	KSH	2	LJB	SHK	423	0.000	1.000
	424	KSH	2	LJB	SHK	424	0.000	1.000
	425	KSH	2	LJB	SHK	425	0.000	1.000
	426	KSH	2	LJB	SHK	426	0.000	1.000
	427	KSH	2	LJB	SHK	427	0.000	1.000
	428	KSH	2	LJB	SHK	428	0.000	1.000
	429	KSH	2	LJB	SHK	429	0.000	1.000
	430	KSH	2	LJB	SHK	430	0.000	1.000
	431	KSH	2	LJB	SHK	431	0.000	1.000
	432	KSH	2	LJB	SHK	432	0.000	1.000
	433	KSH	2	LJB	SHK	433	0.000	1.000
	434	KSH	2	LJB	SHK	434	0.000	1.000
	435	KSH	2	LJB	SHK	435	0.000	1.000
	436	KSH	2	LJB	SHK	436	0.000	1.000
	437	KSH	2	LJB	SHK	437	0.000	1.000
	438	KSH	2	LJB	SHK	438	0.000	1.000
	439	KSH	2	LJB	SHK	439	0.000	1.000
	440	KSH	2	LJB	SHK	440	0.000	1.000
	441	KSH	2	LJB	SHK	441	0.000	1.000
	442	KSH	2	LJB	SHK	442	0.000	1.000
	443	KSH	2	LJB	SHK	443	0.000	1.000
	444	KSH	2	LJB	SHK	444	0.000	1.000
	445	KSH	2	LJB	SHK	445	0.000	1.000
	446	KSH	2	LJB	SHK	446	0.000	1.000
	447	KSH	2	LJB	SHK	447	0.000	1.000
	448	KSH	2	LJB	SHK	448	0.000	1.000
	449	KSH	2	LJB	SHK	449	0.000	1.000
	450	KSH	2	LJB	SHK	450	0.000	1.000
	451	KSH	2	LJB	SHK	451	0.000	1.000
	452	KSH	2	LJB	SHK	452	0.000	1.000
	453	KSH	2	LJB	SHK	453	0.000	1.000
	454	KSH	2	LJB	SHK	454	0.000	1.000
	455	KSH	2	LJB	SHK	455	0.000	1.000
	456	KSH	2	LJB	SHK	456	0.000	1.000
	457	KSH	2	LJB	SHK	457	0.000	1.000
	458	KSH	2	LJB	SHK	458	0.000	1.000
	459	KSH	2	LJB	SHK	459	0.000	1.000
	460	KSH	2	LJB	SHK	460	0.000	1.000
	461	KSH	2	LJB	SHK	461	0.000	1.000
	462	KSH	2	LJB	SHK	462	0.000	1.000
	463	KSH	2	LJB	SHK	463	0.000	1.000
	464	KSH	2	LJB	SHK	464	0.000	1.000
	465	KSH	2	LJB	SHK	465	0.000	1.000
	466	KSH	2	LJB	SHK	466	0.000	1.000
	467	KSH	2	LJB	SHK	467	0.000	1.000
	468	KSH	2	LJB	SHK	468	0.000	1.000
	469	KSH	2	LJB	SHK	469	0.000	1.000
	470	KSH	2	LJB	SHK	470	0.000	1.000
	471	KSH	2	LJB	SHK	471	0.000	1.000
	472	KSH	2	LJB	SHK	472	0.000	1.000
	473	KSH	2	LJB	SHK	473	0.000	1.000
	474	KSH	2	LJB	SHK	474	0.000	1.000
	475	KSH	2	LJB	SHK	475	0.000	1.000
	476	KSH	2	LJB	SHK	476	0.000	1.000
	477	KSH	2	LJB	SHK	477	0.000	1.000
	478	KSH	2	LJB	SHK	478	0.000	1.000
	479	KSH	2	LJB	SHK	479	0.000	1.000
	480	KSH	2	LJB	SHK	480	0.000	1.000
	481	KSH	2	LJB	SHK	481	0.000	1.000
	482	KSH	2	LJB	SHK	482	0.000	1.000
	483	KSH	2	LJB	SHK	483	0.000	1.000
	484	KSH	2	LJB	SHK	484	0.000	1.000
	485	KSH	2	LJB	SHK	485	0.000	1.000
	486	KSH	2	LJB	SHK	486	0.000	1.000
	487	KSH	2	LJB	SHK	487	0.000	1.000
	488	KSH	2	LJB	SHK	488	0.000	1.000
	489	KSH	2	LJB	SHK	489	0.000	1.000
	490	KSH	2	LJB	SHK	490	0.000	1.000
	491	KSH	2	LJB	SHK	491	0.000	1.000
	492	KSH	2	LJB	SHK	492	0.000	1.000
	493	KSH	2	LJB	SHK	493	0.000	1.000
	494	KSH	2	LJB	SHK	494	0.000	1.000
	495	KSH	2	LJB	SHK	495	0.000	1.000
	496	KSH	2	LJB	SHK	496	0.000	1.000
	497	KSH	2	LJB	SHK	497	0.000	1.000
	498	KSH	2	LJB	SHK	498	0.000	1.000
	499	KSH	2	LJB	SHK	499	0.000	1.000
	500	KSH	2	LJB	SHK	500	0.000	1.000
	501	KSH	2	LJB	SHK	501	0.000	1.000
	502	KSH	2	LJB	SHK	502	0.000	1.000
	503	KSH	2	LJB	SHK	503	0.000	1.000
	504	KSH	2	LJB	SHK	504	0.000	1.000
	505	KSH	2	LJB	SHK	505	0.000	1.000
	506	KSH	2	LJB	SHK	506	0.000	1.000
	507	KSH	2	LJB	SHK	507	0.000	1.000
	508	KSH	2	LJB	SHK	508	0.000	1.000
	509	KSH	2	LJB	SHK	509	0.000	1.000
	510	KSH	2	LJB	SHK	510	0.000	1.000
	511	KSH	2	LJB	SHK	511	0.000	1.000
	512	KSH	2	LJB	SHK	512	0.000	1.000
	513	KSH	2	LJB	SHK	513	0.000	1.000
	514	KSH	2	LJB	SHK	514	0.000	1.000
	515	KSH	2	LJB	SHK	515	0.000	1.000
	516	KSH	2	LJB	SHK	516	0.000	1.000
	517	KSH	2	LJB	SHK	517	0.000	1.000
	518	KSH	2	LJB	SHK	518	0.000	1.000
	519	KSH	2	LJB	SHK	519	0.000	1.000
	520	KSH	2	LJB	SHK	520	0.000	1.000
	521	KSH	2	LJB	SHK	521	0.000	1.000
	522	KSH	2	LJB	SHK	522	0.000	1.000
	523	KSH	2	LJB	SHK	523	0.000	1.000
	524	KSH	2	LJB	SHK	524	0.000	1.000
	525	KSH	2	LJB	SHK	525	0.000	1.000
	526	KSH	2	LJB	SHK	526	0.000	1.000
	527	KSH	2	LJB	SHK	527	0.000	1.000
	528	KSH	2	LJB	SHK	528	0.000	1.000
	529	KSH	2	LJB	SHK	529	0.000	1.000
	530	KSH	2	LJB	SHK	530	0.000	1.000
	531	KSH	2	LJB	SHK	531	0.000	1.000
	532	KSH	2	LJB	SHK	532	0.000	1.000
	533	KSH	2	LJB	SHK	533	0.000	1.000
	534	KSH	2	LJB	SHK	534	0.000	1.000
	535	KSH	2	LJB	SHK	535	0.000	1.000
	536	KSH	2	LJB	SHK	536	0.000	1.000
	537	KSH	2	LJB	SHK	537	0.000	1.000
	538	KSH	2	LJB	SHK	538	0.000	1.000
	539	KSH	2	LJB	SHK	539	0.000	1.000
	540	KSH	2	LJB	SHK	540	0.000	1.000
	541	KSH	2	LJB	SHK	541	0.000	1.000
	542	KSH	2	LJB	SHK	542	0.000	1.000
	543	KSH	2	LJB	SHK	543	0.000	1.000
	544	KSH	2	LJB	SHK	544	0.000	1.000
	545	KSH	2	LJB	SHK	545	0.000	1.000
	546	KSH	2	LJB	SHK	546	0.000	1.000
	547	KSH	2	LJB	SHK	547	0.000	1.000
	548	KSH	2	LJB	SHK	548	0.000	1.000
	549	KSH	2	LJB	SHK	549	0.000	1.000
	550	KSH	2	LJB	SHK	550	0.000	1.000
	551	KSH	2	LJB	SHK	551	0.000	1.000
	552	KSH	2	LJB	SHK	552	0.000	1.000
	553	KSH	2	LJB	SHK	553	0.000	1.000
	554	KSH	2	LJB	SHK	554	0.000	1.000
	555	KSH	2	LJB	SHK	555	0.000	1.000
	556	KSH	2	LJB	SHK	556	0.000	1.000
	557	KSH	2	LJB	SHK	557	0.000	1.000
	558	KSH	2	LJB	SHK	558	0.000	1.000
	559	KSH	2	LJB	SHK	559	0.000	1.000
	560	KSH	2	LJB	SHK	560	0.000	1.000
	561	KSH	2	LJB	SHK	561	0.000	1.000
	562	KSH	2	LJB	SHK	562	0.000	1.000
	563	KSH	2	LJB	SHK	563	0.000	1.000
	564	KSH	2	LJB	SHK	564	0.000	1.000
	565	KSH	2	LJB	SHK	565	0.000	1.000
	566	KSH	2	LJB	SHK	566	0.000	1.000
	567	KSH	2	LJB	SHK	567	0.000	1.000
	568	KSH	2	LJB	SHK	568	0.000	1.000
	569	KSH	2	LJB	SHK	569	0.000	1.000
	570	KSH	2	LJB	SHK	570	0.000	1.000
	571	KSH	2	LJB	SHK	571	0.000	1.000
	572	KSH	2	LJB	SHK	572	0.000	1.000
	573	KSH	2	LJB	SHK	573	0.000	1.000
	574	KSH	2	LJB	SHK	574	0.000	1.000
	575	KSH	2	LJB	SHK	575	0.000	1.000
	576	KSH	2	LJB	SHK	576	0.000	1.000
	577	KSH	2	LJB	SHK	577	0.000	1.000
	578	KSH	2	LJB	SHK	578	0.000	1.000
	579	KSH	2	LJB	SHK	579	0.000	1.000
	580	KSH	2	LJB	SHK	580	0.000	1.000
	581	KSH	2	LJB	SHK	581	0.000	1.000
	582	KSH	2	LJB	SHK	582	0.000	1.000
	583	KSH	2	LJB	SHK	583	0.000	1.000
	584	KSH	2	LJB	SHK	584	0.000	1.000
	585	KSH	2	LJB	SHK	585	0.000	1.000
	586	KSH	2	LJB	SHK	586	0.000	1.000
	587	KSH	2	LJB	SHK	587	0.000	1.000
	588	KSH	2	LJB	SHK	588	0.000	1.000
	589	KSH	2	LJB	SHK	589	0.000	1.000
	590	KSH	2	LJB	SHK	590	0.000	1.000
	591	KSH	2	LJB	SHK	591	0.000	1.000
	592	KSH	2	LJB	SHK	592	0.000	1.000
	593	KSH	2	LJB	SHK	593	0.000	1.000
	594	KSH	2	LJB	SHK	594	0.000	1.000
	595	KSH	2	LJB	SHK	595	0.000	1.000
	596	KSH	2	LJB	SHK	596	0.000	1.000
	597	KSH	2	LJB	SHK	597	0.000	1.000
	598	KSH	2	LJB	SHK	598	0.000	1.000
	599	KSH	2	LJB	SHK	599	0.000	1.000
	600	KSH	2	LJB	SHK	600	0.000	1.000
	601	KSH	2	LJB	SHK	601	0.000	1.000
	602	KSH	2	LJB	SHK	602	0.000	1.000
	603	KSH	2	LJB	SHK	603	0.000	1.000
	604	KSH	2	LJB	SHK	604	0.000	1.000
	605	KSH	2	LJB	SHK	605	0.000	1.000
	606	KSH	2	LJB	SHK	606	0.000	1.000
	607	KSH	2	LJB	SHK	607	0.000	1.000
	608	KSH	2	LJB	SHK	608	0.000	1.000
	609	KSH	2	LJB	SHK	609	0.000	1.000
	610	KSH	2	LJB	SHK	610	0.000	1.000
	611	KSH	2	LJB	SHK	611	0.000	1.000
	612	KSH	2	LJB	SHK	612	0.000	1.000
	613	KSH	2	LJB	SHK	613	0.000	1.000
	614	KSH	2	LJB	SHK	614	0.000	1.000
	615	KSH	2	LJB	SHK	615	0.000	1.000
	616	KSH	2	LJB	SHK	616	0.000	1.000
	617	KSH	2	LJB	SHK	617	0.000	1.000
	618	KSH	2	LJB	SHK	618	0.000	1.000
	619	KSH	2	LJB	SHK	619	0.000	1.000
	620	KSH	2	LJB	SHK	620	0.000	1.000
	621	KSH	2	LJB	SHK	621	0.000	1.000
	622	KSH	2	LJB	SHK	622	0.000	1.000
	623	KSH	2	LJB	SHK	623	0.000	1.000
	624	KSH	2	LJB	SHK	624	0.000	1.000
	625	KSH	2	LJB	SHK	625	0.000	1.000
	626	KSH	2	LJB	SHK	626	0.000	1.000
	627	KSH	2	LJB	SHK	627	0.000	1.000
	628	KSH	2	LJB	SHK	628	0.000	1.000
	629	KSH	2	LJB	SHK	629	0.000	1.000
	630	KSH	2	LJB	SHK	630	0.000	1.000
	631	KSH	2	LJB	SHK	631	0.000	1.000
	632	KSH	2	LJB	SHK	632	0.000	1.000
	633	KSH	2	LJB	SHK	633	0.000	1.000
	634	KSH	2	LJB	SHK	634	0.000	1.000
	635	KSH	2	LJB	SHK	635	0.000	1.000
	636	KSH	2	LJB	SHK	636	0.000	1.000
	637	KSH	2	LJB	SHK	637	0.000	1.000
	638	KSH	2	LJB	SHK	638	0.000	1.000
	639	KSH	2	LJB	SHK	639	0.000	1.000
	640	KSH	2	LJB	SHK	640	0.000	1.000
	641	KSH	2	LJB	SHK	641	0.000	1.000
	642	KSH	2	LJB	SHK	642	0.000	1.000
	643	KSH	2	LJB	SHK	643	0.000	1.000
	644	KSH	2	LJB	SHK	644	0.000	1.000
	645	KSH	2	LJB	SHK	645	0.000	1.000
	646	KSH	2	LJB	SHK	646	0.000	1.000
	647	KSH	2	LJB	SHK	647	0.000	1.000
	648	KSH	2	LJB	SHK	648	0.000	1.000
	649	KSH	2	LJB	SHK	649	0.000	1.000
	650	KSH	2	LJB	SHK	650	0.000	1.000
	651	KSH	2	LJB	SHK	651	0.000	1.000
	652	KSH	2	LJB	SHK	652	0.000	1.000
	653	KSH	2	LJB	SHK	653	0.000	1.000
	654	KSH	2	LJB	SHK	654	0.000	1.000
	655	KSH	2	LJB	SHK	655	0.000	1.000
	656	KSH	2	LJB	SHK	656	0.000	1.000
	657	KSH	2	LJB	SHK	657	0.000	1.000
	658	KSH	2	LJB	SHK	658	0.000	1.000
	659	KSH	2	LJB	SHK	659	0.000	1.000
	660	KSH	2	LJB	SHK	660	0.000	1.000
	661	KSH	2	LJB	SHK	661	0.000	1.000
	662	KSH	2	LJB	SHK	662	0.000	1.000
	663	KSH	2	LJB	SHK	663	0.000	1.000
	664	KSH	2	LJB	SHK	664	0.000	1.000
	665	KSH	2	LJB	SHK	665	0.000	1.000
	666	KSH	2	LJB	SHK	666	0.000	1.000
	667	KSH	2	LJB	SHK	667	0.000	1.000
	668	KSH	2	LJB	SHK	668	0.000	1.000
	669	KSH	2	LJB	SHK	669	0.000	1.000
	670	KSH	2	LJB	SHK	670	0.000	1.000
	671	KSH	2	LJB	SHK	671	0.000	1.000
	672	KSH	2	LJB	SHK	672	0.000	1.000
	673	KSH	2	LJB	SHK	673	0.000	1.000
	674	KSH	2	LJB	SHK	674	0.000	1.000
	675	KSH	2	LJB	SHK	675	0.000	1.000
	676	KSH	2	LJB	SHK	676	0.000	1.000
	677	KSH	2	LJB	SHK	677	0.000	1.000
	678	KSH	2	LJB	SHK	678	0.000	1.000
	679	KSH	2	LJB	SHK	679	0.000	1.000
	680	KSH	2	LJB	SHK	680	0.000	1.000
	681	KSH	2	LJB	SHK	681	0.000	1.000
	682	KSH	2	LJB	SHK	682	0.000	1.000
	683	KSH	2	LJB	SHK	683	0.000	1.000
	684	KSH	2	LJB	SHK	684	0.000	1.000
	685	KSH	2	LJB	SHK	685	0.000	1.000
	686	KSH	2	LJB	SHK	686	0.000	1.000
	687	KSH	2	LJB	SHK	687	0.000	1.000
	688	KSH	2	LJB	SHK	688	0.000	1.000
	689	KSH	2	LJB	SHK	689	0.000	1.000
	690	KSH	2	LJB	SHK	690	0.000	1.000
	691	KSH	2	LJB	SHK	691	0.000	1.000
	692	KSH	2	LJB	SHK	692	0.000	1.000
	693	KSH	2	LJB	SHK	693	0.000	1.000
	694	KSH	2	LJB	SHK	694	0.000	1.000
	695	KSH	2	LJB	SHK	695	0.000	1.000
	696	KSH	2	LJB	SHK	696	0.000	1.000
	697	KSH	2	LJB	SHK	697	0.000	1.000
	698	KSH	2	LJB	SHK	698	0.000	1.000
	699	KSH	2	LJB	SHK	699	0.000	1.000
	700	KSH	2	LJB	SHK	700	0.000	1.000
	701	KSH	2	LJB	SHK	701	0.000	1.000
	702	KSH	2	LJB	SHK	702	0.000	1.000
	703	KSH	2	LJB	SHK	703	0.000	1.000
	704	KSH	2	LJB	SHK	704	0.000	1.000
	705	KSH	2	LJB	SHK	705	0.000	1.000
	706	KSH	2	LJB	SHK	706	0.000	1.000
	707	KSH	2	LJB	SHK	707	0.000	1.000
	708	KSH	2	LJB	SHK	708	0.000	1.000
	709	KSH	2	LJB	SHK	709	0.000	1.000
	710	KSH	2	LJB	SHK	710	0.000	1.000
	711	KSH	2	LJB	SHK	711	0.000	1.000
	712	KSH	2	LJB	SHK	712	0.000	1.000
	713	KSH	2	LJB	SHK	713	0.000	1.000
	714	KSH	2	LJB	SHK	714	0.000	1.000
	715	KSH	2	LJB	SHK	715	0.000	1.000
	716	KSH	2	LJB	SHK	716	0.000	1.000
	717	KSH	2	LJB	SHK	717	0.000	1.000
	718	KSH	2	LJB	SHK	718	0.000	1.000
	719	KSH	2	LJB	SHK	719	0.000	1.000
	720	KSH	2	LJB	SHK	720	0.000	1.000
	721	KSH	2	LJB	SHK	721	0.000	1.000
	722	KSH	2	LJB	SHK	722	0.000	1.000
	723	KSH	2	LJB	SHK	723	0.000	1.000
	724	KSH	2	LJB	SHK	724	0.000	1.000
	725	KSH	2	LJB	SHK	725	0.000	1.000
	726	KSH	2	LJB	SHK	726	0.000	1.000
	727	KSH	2	LJB	SHK	727	0.000	1.000
	728	KSH	2	LJB	SHK	728	0.000	1.000
	729	KSH	2	LJB	SHK	729	0.000	1.000
	730	KSH	2	LJB	SHK	730	0.000	1.000
	731	KSH	2	LJB	SHK	731	0.000	1.000
	732	KSH	2	LJB	SHK	732	0.000	1.000
	733	KSH	2	LJB	SHK	733	0.000	1.000
	734	KSH	2	LJB	SHK	734	0.000	1.000
	735	KSH	2	LJB	SHK	735	0.000	1.000
	736	KSH	2	LJB	SHK	736	0.000	1.000
	737	KSH	2	LJB	SHK	737	0.000	1.000
	738	KSH	2	LJB	SHK	738	0.000	1.000
	739	KSH	2	LJB	SHK	739	0.000	1.000
	740	KSH	2	LJB	SHK	740	0.000	1.000
	741	KSH	2	LJB	SHK	741	0.000	1.000
	742	KSH	2	LJB	SHK	742	0.000	1.000
	743	KSH	2	LJB	SHK	743	0.000	1.000
	744	KSH	2	LJB	SHK	744	0.000	1.000
	745	KSH	2	LJB	SHK	745	0.000	1.000
	746	KSH	2	LJB	SHK	746	0.000	1.000
	747	KSH	2	LJB	SHK	747	0.000	1.000
	748	KSH	2	LJB	SHK	748	0.000	1.000
	749	KSH	2	LJB	SHK	749	0.000	1.000
	750	KSH	2	LJB	SHK	750	0.000	1.000
	751	KSH	2	LJB	SHK	751	0.000	1.000
	752	KSH	2	LJB	SHK	752	0.000	1.000
	753	KSH	2	LJB	SHK	753	0.000	1.000
	754	KSH	2	LJB	SHK	754	0.000	1.000
	755	KSH	2	LJB	SHK	755	0.000	1.000
	756	KSH	2	LJB	SHK	756	0.000	1.000
	757	KSH	2	LJB	SHK	757	0.000	1.000
	758	KSH	2	LJB	SHK	758	0.000	1.000
	759	KSH	2	LJB	SHK	759	0.000	1.000
	760	KSH	2	LJB	SHK	760	0.000	1.000
	761	KSH	2	LJB	SHK	761	0.000	1.000
	762	KSH	2	LJB	SHK	762	0.000	1.000
	763	KSH	2	LJB	SHK	763	0.000	1.000
	764	KSH	2	LJB	SHK	764	0.000	1.000
	765	KSH	2	LJB	SHK	765	0.000	1.000
	766	KSH	2	LJB	SHK	766	0.000	1.000
	767	KSH	2	LJB	SHK	767	0.000	1.000
	768	KSH	2	LJB	SHK	768	0.000	1.000
	769	KSH	2	LJB	SHK	769	0.000	1.000
	770	KSH	2	LJB	SHK	770	0.000	1.000
	771	KSH	2	LJB	SHK	771	0.000	1.000
	772	KSH	2	LJB	SHK	772	0.000	1.000
	773	KSH	2	LJB	SHK	773	0.000	1.000
	774	KSH	2	LJB	SHK	774	0.000	1.000
	775	KSH	2	LJB	SHK	775	0.000	1.000
	776	KSH	2	LJB	SHK	776	0.000	1.000
	777	KSH	2	LJB	SHK	777	0.000	1.000
	778	KSH	2	LJB	SHK	778	0.000	1.000
	779	KSH	2	LJB	SHK	779	0.000	1.000
	780	KSH	2	LJB	SHK	780	0.000	1.000
	781	KSH	2	LJB	SHK	781	0.000	1.000
	782	KSH	2	LJB	SHK	782	0.000	1.000
	783	KSH	2	LJB	SHK	783	0.000	1.000
	784	KSH	2	LJB	SHK	784	0.000	1.000
	785	KSH	2	LJB	SHK	785	0.000	1.000
	786	KSH	2	LJB	SHK	786	0.000	1.000
	787	KSH	2	LJB	SHK	787	0.000	1.000
	788	KSH	2	LJB	SHK	788	0.000	1.000
	789	KSH	2	LJB	SHK	789	0.000	1.000
	790	KSH	2	LJB	SHK	790	0.000	1.000
	791	KSH	2	LJB	SHK	791	0.000	1.000
	792	KSH	2	LJB	SHK	792	0.000	1.000
	793	KSH	2	LJB	SHK	793	0.000	1.000
	794	KSH	2	LJB	SHK	794	0.000	1.000
	795	KSH	2	LJB	SHK	795	0.000	1.000
	796	KSH	2	LJB	SHK	796	0.000	1.000
	797	KSH	2	LJB	SHK	797	0.000	1.000
	798	KSH	2	LJB	SHK	798	0.000	1.000
	799	KSH	2	LJB	SHK	799	0.000	1.000
	800	KSH	2	LJB	SHK	800	0.000	1.000
	801	KSH	3	LJB	SHK	801	0.000	1.000
	802	KSH	3	LJB	SHK	802	0.000	1.000
	803	KSH	3	LJB	SHK	803	0.000	1.000
	804	KSH	3	LJB	SHK	804	0.000	1.000
	805	KSH	3	LJB	SHK	805	0.000	1.000
	806	KSH	3	LJB	SHK	806	0.000	1.000
	807	KSH	3	LJB	SHK	807	0.000	1.000
	808	KSH	3	LJB	SHK	808	0.000	1.000
	809	KSH	3	LJB	SHK	809	0.000	1.000
	810	KSH	3	LJB	SHK	810	0.000	1.000
	811	KSH	3	LJB	SHK	811	0.000	1.000
	812	KSH	3	LJB	SHK	812	0.000	1.000
	813	KSH	3	LJB	SHK	813	0.000	1.000
	814	KSH	3	LJB	SHK	814	0.000	1.000
	815	KSH	3	LJB	SHK	815	0.000	1.000
	816	KSH	3	LJB	SHK	816	0.000	1.000
	817	KSH	3	LJB	SHK	817	0.000	1.000
	818	KSH	3	LJB	SHK	818	0.000	1.000
	819	KSH	3	LJB	SHK	819	0.000	1.000
	820	KSH	3	LJB	SHK	820	0.000	1.000
	821	KSH	3	LJB	SHK	821	0.000	1.000
	822	KSH	3	LJB	SHK	822	0.000	1.000
	823	KSH	3	LJB	SHK	823	0.000	1.000
	824	KSH	3	LJB	SHK	824	0.000	1.000
	825	KSH	3	LJB	SHK	825	0.000	1.000
	826	KSH	3	LJB	SHK	826	0.000	1.000
	827	KSH	3	LJB	SHK	827	0.000	1.000
	828	KSH	3	LJB	SHK	828	0.000	1.000
	829	KSH	3	LJB	SHK	829	0.000	1.000
	830	KSH	3	LJB	SHK	830	0.000	1.000
	831	KSH	3	LJB	SHK	831	0.000	1.000
	832	KSH	3	LJB	SHK	832	0.000	1.000
	833	KSH	3	LJB	SHK	833	0.000	1.000
	834	KSH	3	LJB	SHK	834	0.000	1.000
	835	KSH	3	LJB	SHK	835	0.000	1.000
	836	KSH	3	LJB	SHK	836	0.000	1.000
	837	KSH	3	LJB	SHK	837	0.000	1.000
	838	KSH	3	LJB	SHK	838	0.000	1.000
	839	KSH	3	LJB	SHK	839	0.000	1.000
	840	KSH	3	LJB	SHK	840	0.000	1.000
	841	KSH	3	LJB	SHK	841	0.000	1.000
	842	KSH	3	LJB	SHK	842	0.000	1.000
	843	KSH	3	LJB	SHK	843	0.000	1.000
	844	KSH	3	LJB	SHK	844	0.000	1.000
	845	KSH	3	LJB	SHK	845	0.000	1.000
	846	KSH	3	LJB	SHK	846	0.000	1.000
	847	KSH	3	LJB	SHK	847	0.000	1.000
	848	KSH	3	LJB	SHK	848	0.000	1.000
	849	KSH	3	LJB	SHK	849	0.000	1.000
	850	KSH	3	LJB	SHK	850	0.000	1.000
	851	KSH	3	LJB	SHK	851	0.000	1.000
	852	KSH	3	LJB	SHK	852	0.000	1.000
	853	KSH	3	LJB	SHK	853	0.000	1.000
	854	KSH	3	LJB	SHK	854	0.000	1.000
	855	KSH	3	LJB	SHK	855	0.000	1.000
	856	KSH	3	LJB	SHK	856	0.000	1.000
	857	KSH	3	LJB	SHK	857	0.000	1.000
	858	KSH	3	LJB	SHK	858	0.000	1.000
	859	KSH	3	LJB	SHK	859	0.000	1.000
	860	KSH	3	LJB	SHK	860	0.000	1.000
	861	KSH	3	LJB	SHK	861	0.000	1.000
	862	KSH	3	LJB	SHK	862	0.000	1.000
	863	KSH	3	LJB	SHK	863	0.000	1.000
	864	KSH	3	LJB	SHK	864	0.000	1.000
	865	KSH	3	LJB	SHK	865	0.000	1.000
	866	KSH	3	LJB	SHK	866	0.000	1.000
	867	KSH	3	LJB	SHK	867	0.000	1.000
	868	KSH	3	LJB	SHK	868	0.000	1.000
	869	KSH	3	LJB	SHK	869	0.000	1.000
	870	KSH	3	LJB	SHK	870	0.000	1.000
	871	KSH	3	LJB	SHK	871	0.000	1.000
	872	KSH	3	LJB	SHK	872	0.000	1.000
	873	KSH	3	LJB	SHK	873	0.000	1.000
	874	KSH	3	LJB	SHK	874	0.000	1.000
	875	KSH	3	LJB	SHK	875	0.000	1.000
	876	KSH	3	LJB	SHK	876	0.000	1.000
	877	KSH	3	LJB	SHK	877	0.000	1.000
	878	KSH	3	LJB	SHK	878	0.000	1.000
	879	KSH	3	LJB	SHK	879	0.000	1.000
	880	KSH	3	LJB	SHK	880	0.000	1.000
	881	KSH	3	LJB	SHK	881	0.000	1.000
	882	KSH	3	LJB	SHK	882	0.000	1.000
	883	KSH	3	LJB	SHK	883	0.000	1.000
	884	KSH	3	LJB	SHK	884	0.000	1.000
	885	KSH	3	LJB	SHK	885	0.000	1.000
	886	KSH	3	LJB	SHK	886	0.000	1.000
	887	KSH	3	LJB	SHK	887	0.000	1.000
	888	KSH	3	LJB	SHK	888	0.000	1.000
	889	KSH	3	LJB	SHK	889	0.000	1.000
	890	KSH	3	LJB	SHK	890	0.000	1.000
	891	KSH	3	LJB	SHK	891	0.000	1.000
	892	KSH	3	LJB	SHK	892	0.000	1.000
	893	KSH	3	LJB	SHK	893	0.000	1.000
	894	KSH	3	LJB	SHK	894	0.000	1.000
	895	KSH	3	LJB	SHK	895	0.000	1.000
	896	KSH	3	LJB	SHK	896	0.000	1.000
	897	KSH	3	LJB	SHK	897	0.000	1.000
	898	KSH	3	LJB	SHK	898	0.000	1.000
	899	KSH	3	LJB	SHK	899	0.000	1.000
	900	KSH	3	LJB	SHK	900	0.000	1.000
	901	KSH	3	LJB	SHK	901	0.000	1.000
	902	KSH	3	LJB	SHK	902	0.000	1.000
	903	KSH	3	LJB	SHK	903	0.000	1.000
	904	KSH	3	LJB	SHK	904	0.000	1.000
	905	KSH	3	LJB	SHK	905	0.000	1.000
	906	KSH	3	LJB	SHK	906	0.000	1.000
	907	KSH	3	LJB	SHK	907	0.000	1.000
	908	KSH	3	LJB	SHK	908	0.000	1.000
	909	KSH	3	LJB	SHK	909	0.000	1.000
	910	KSH	3	LJB	SHK	910	0.000	1.000
	911	KSH	3	LJB	SHK	911	0.000	1.000
	912	KSH	3	LJB	SHK	912	0.000	1.000
	913	KSH	3	LJB	SHK	913	0.000	1.000
	914	KSH	3	LJB	SHK	914	0.000	1.000
	915	KSH	3	LJB	SHK	915	0.000	1.000
	916	KSH	3	LJB	SHK	916	0.000	1.000
	917	KSH	3	LJB	SHK	917	0.000	1.000
	918	KSH	3	LJB	SHK	918	0.000	1.000
	919	KSH	3	LJB	SHK	919	0.000	1.000
	920	KSH	3	LJB	SHK	920	0.000	1.000
	921	KSH	3	LJB	SHK	921	0.000	1.000
	922	KSH	3	LJB	SHK	922	0.000	1.000
	923	KSH	3	LJB	SHK	923	0.000	1.000
	924	KSH	3	LJB	SHK	924	0.000	1.000
	925	KSH	3	LJB	SHK	925	0.000	1.000
	926	KSH	3	LJB	SHK	926	0.000	1.000
	927	KSH	3	LJB	SHK	927	0.000	1.000
	928	KSH	3	LJB	SHK	928	0.000	1.000
	929	KSH	3	LJB	SHK	929	0.000	1.000
	930	KSH	3	LJB	SHK	930	0.000	1.000
	931	KSH	3	LJB	SHK	931	0.000	1.000
	932	KSH	3	LJB	SHK	932	0.000	1.000
	933	KSH	3	LJB	SHK	933	0.000	1.000
	934	KSH	3	LJB	SHK	934	0.000	1.000
	935	KSH	3	LJB	SHK	935	0.000	1.000
	936	KSH	3	LJB	SHK	936	0.000	1.000
	937	KSH	3	LJB	SHK	937	0.000	1.000
	938	KSH	3	LJB	SHK	938	0.000	1.000
	939	KSH	3	LJB	SHK	939	0.000	1.000
	940	KSH	3	LJB	SHK	940	0.000	1.000
	941	KSH	3	LJB	SHK	941	0.000	1.000
	942	KSH	3	LJB	SHK	942	0.000	1.000
	943	KSH	3	LJB	SHK	943	0.000	1.000
	944	KSH	3	LJB	SHK	944	0.000	1.000
	945	KSH	3	LJB	SHK	945	0.000	1.000
	946	KSH	3	LJB	SHK	946	0.000	1.000
	947	KSH	3	LJB	SHK	947	0.000	1.000
	948	KSH	3	LJB	SHK	948	0.000	1.000
	949	KSH	3	LJB	SHK	949	0.000	1.000
	950	KSH	3	LJB	SHK	950	0.000	1.000
	951	KSH	3	LJB	SHK	951	0.000	1.000
	952	KSH	3	LJB	SHK	952	0.000	1.000
	953	KSH	3	LJB	SHK	953	0.000	1.000
	954	KSH	3	LJB	SHK	954	0.000	1.000
	955	KSH	3	LJB	SHK	955	0.000	1.000
	956	KSH	3	LJB	SHK	956	0.000	1.000
	957	KSH	3	LJB	SHK	957	0.000	1.000
	958	KSH	3	LJB	SHK	958	0.000	1.000
	959	KSH	3	LJB	SHK	959	0.000	1.000
	960	KSH	3	LJB	SHK	960	0.000	1.000
	961	KSH	3	LJB	SHK	961	0.000	1.000
	962	KSH	3	LJB	SHK	962	0.000	1.000
	963	KSH	3	LJB	SHK	963	0.000	1.000
	964	KSH	3	LJB	SHK	964	0.000	1.000
	965	KSH	3	LJB	SHK	965	0.000	1.000
	966	KSH	3	LJB	SHK	966	0.000	1.000
	967	KSH	3	LJB	SHK	967	0.000	1.000
	968	KSH	3	LJB	SHK	968	0.000	1.000
	969	KSH	3	LJB	SHK	969	0.000	1.000
	970	KSH	3	LJB	SHK	970	0.000	1.000
	971	KSH	3	LJB	SHK	971	0.000	1.000
	972	KSH	3	LJB	SHK	972	0.000	1.000
	973	KSH	3	LJB	SHK	973	0.000	1.000
	974	KSH	3	LJB	SHK	974	0.000	1.000
	975	KSH	3	LJB	SHK	975	0.000	1.000
	976	KSH	3	LJB	SHK	976	0.000	1.000
	977	KSH	3	LJB	SHK	977	0.000	1.000
	978	KSH	3	LJB	SHK	978	0.000	1.000
	979	KSH	3	LJB	SHK	979	0.000	1.000
	980	KSH	3	LJB	SHK	980	0.000	1.000
	981	KSH	3	LJB	SHK	981	0.000	1.000
	982	KSH	3	LJB	SHK	982	0.000	1.000
	983	KSH	3	LJB	SHK	983	0.000	1.000
	984	KSH	3	LJB	SHK	984	0.000	1.000
	985	KSH	3	LJB	SHK	985	0.000	1.000
	986	KSH	3	LJB	SHK	986	0.000	1.000
	987	KSH	3	LJB	SHK	987	0.000	1.000
	988	KSH	3	LJB	SHK	988	0.000	1.000
	989	KSH	3	LJB	SHK	989	0.000	1.000
	990	KSH	3	LJB	SHK	990	0.000	1.000
	991	KSH	3	LJB	SHK	991	0.000	1.000
	992	KSH	3	LJB	SHK	992	0.000	1.000
	993	KSH	3	LJB	SHK	993	0.000	1.000
	994	KSH	3	LJB	SHK	994	0.000	1.000
	995	KSH	3	LJB	SHK	995	0.000	1.000
	996	KSH	3	LJB	SHK	996	0.000	1.000
	997	KSH	3	LJB	SHK	997	0.000	1.000
	998	KSH	3	LJB	SHK	998	0.000	1.000
	999	KSH	3	LJB	SHK	999	0.000	1.000
	1000	KSH	3	LJB	SHK	1000	0.000	1.000
	1001	KSH	3	LJB	SHK	1001	0.000	1.000
	1002	KSH	3	LJB	SHK	1002	0.000	1.000
	1003	KSH	3	LJB	SHK	1003	0.000	1.000
	1004	KSH	3	LJB	SHK	1004	0.000	1.000
	1005	KSH	3	LJB	SHK	1005	0.000	1.000
	1006	KSH	3	LJB	SHK	1006	0.000	1.000
	1007	KSH	3	LJB	SHK	1007	0.000	1.000
	1008	KSH	3	LJB	SHK	1008	0.000	1.000
	1009	KSH	3	LJB	SHK	1009	0.000	1.000
	1010	KSH	3	LJB	SHK	1010	0.000	1.000
	1011	KSH	3	LJB	SHK	1011	0.000	1.000
	1012	KSH	3	LJB	SHK	1012	0.000	1.000
	1013	KSH	3	LJB	SHK	1013	0.000	1.000
	1014	KSH	3	LJB	SHK	1014	0.000	1.000
	1015	KSH	3	LJB	SHK	1015	0.000	1.000
	1016	KSH	3	LJB	SHK	1016	0.000	1.000
	1017	KSH	3	LJB	SHK	1017	0.000	1.000
	1018	KSH	3	LJB	SHK	1018	0.000	1.000
	1019	KSH	3	LJB	SHK	1019	0.000	1.000
	1020	KSH	3	LJB	SHK	1020	0.000	1.000
	1021	KSH	3	LJB	SHK	1021	0.000	1.000
	1022	KSH	3	LJB	SHK	1022	0.000	1.000
	1023	KSH	3	LJB	SHK	1023	0.000	1.000
	1024	KSH	3	LJB	SHK	1024	0.000	1.000
	1025	KSH	3	LJB	SHK	1025	0.000	1.000
	1026	KSH	3	LJB	SHK	1026	0.000	1.000
	1027	KSH	3	LJB	SHK	1027	0.000	1.000
	1028	KSH	3	LJB	SHK	1028	0.000	1.000
	1029	KSH	3	LJB	SHK	1029	0.000	1.000
	1030	KSH	3	LJB	SHK	1030	0.000	1.000
	1031	KSH	3	LJB	SHK	1031	0.000	1.000
	1032	KSH	3	LJB	SHK	1032	0.000	1.000
	1033	KSH	3	LJB	SHK	1033	0.000	1.000
	1034	KSH	3	LJB	SHK	1034	0.000	1.000
	1035	KSH	3	LJB	SHK	1035	0.000	1.000
	1036	KSH	3	LJB	SHK	1036	0.000	1.000
	1037	KSH	3	LJB	SHK	1037	0.000	1.000
	1038	KSH	3	LJB	SHK	1038	0.000	1.000
	1039	KSH	3	LJB	SHK	1039	0.000	1.000
	1040	KSH	3	LJB	SHK	1040	0.000	1.000
	1041	KSH	3	LJB	SHK	1041	0.000	1.000
	1042	KSH	3	LJB	SHK	1042	0.000	1.000
	1043	KSH	3	LJB	SHK	1043	0.000	1.000
	1044	KSH	3	LJB	SHK	1044	0.000	1.000
	1045	KSH	3	LJB	SHK	1045	0.000	1.000
	1046	KSH	3	LJB	SHK	1046	0.000	1.000
	1047	KSH	3	LJB	SHK	1047	0.000	1.000
	1048	KSH	3	LJB	SHK	1048	0.000	1.000
	1049	KSH	3	LJB	SHK	1049	0.000	1.000
	1050	KSH	3	LJB	SHK	1050	0.000	1.000
	1051	KSH	3	LJB	SHK	1051	0.000	1.000
	1052	KSH	3	LJB	SHK	1052	0.000	1.000
	1053	KSH	3	LJB	SHK	1053	0.000	1.000
	1054	KSH	3	LJB	SHK	1054	0.000	1.000
	1055	KSH	3	LJB	SHK	1055	0.000	1.000
	1056	KSH	3	LJB	SHK	1056	0.000	1.000
	1057	KSH	3	LJB	SHK	1057	0.000	1.000
	1058	KSH	3	LJB	SHK	1058	0.000	1.000
	1059	KSH	3	LJB	SHK	1059	0.000	1.000
	1060	KSH	3	LJB	SHK	1060	0.000	1.000
	1061	KSH	3	LJB	SHK	1061	0.000	1.000
	1062	KSH	3	LJB	SHK	1062	0.000	1.000
	1063	KSH	3	LJB	SHK	1063	0.000	1.000
	1064	KSH	3	LJB	SHK	1064	0.000	1.000
	1065	KSH	3	LJB	SHK	1065	0.000	1.000
	1066	KSH	3	LJB	SHK	1066	0.000	1.000
	1067	KSH	3	LJB	SHK	1067	0.000	1.000
	1068	KSH	3	LJB	SHK	1068	0.000	1.000
	1069	KSH	3	LJB	SHK	1069	0.000	1.000
	1070	KSH	3	LJB	SHK	1070	0.000	1.000
	1071	KSH	3	LJB	SHK	1071	0.000	1.000
	1072	KSH	3	LJB	SHK	1072	0.000	1.000
	1073	KSH	3	LJB	SHK	1073	0.000	1.000
	1074	KSH	3	LJB	SHK	1074	0.000	1.000
	1075	KSH	3	LJB	SHK	1075	0.000	1.000
	1076	KSH	3	LJB	SHK	1076	0.000	1.000
	1077	KSH	3	LJB	SHK	1077	0.000	1.000
	1078	KSH	3	LJB	SHK	1078	0.000	1.000
	1079	KSH	3	LJB	SHK	1079	0.000	1.000
	1080	KSH	3	LJB	SHK	1080	0.000	1.000
	1081	KSH	3	LJB	SHK	1081	0.000	1.000
	1082	KSH	3	LJB	SHK	1082	0.000	1.000
	1083	KSH	3	LJB	SHK	1083	0.000	1.000
	1084	KSH	3	LJB	SHK	1084	0.000	1.000
	1085	KSH	3	LJB	SHK	1085	0.000	1.000
	1086	KSH	3	LJB	SHK	1086	0.000	1.000
	1087	KSH	3	LJB	SHK	1087	0.000	1.000
	1088	KSH	3	LJB	SHK	1088	0.000	1.000
	1089	KSH	3	LJB	SHK	1089	0.000	1.000
	1090	KSH	3	LJB	SHK	1090	0.000	1.000
	1091	KSH	3	LJB	SHK	1091	0.000	1.000
	1092	KSH	3	LJB	SHK	1092	0.000	1.000
	1093	KSH	3	LJB	SHK	1093	0.000	1.000
	1094	KSH	3	LJB	SHK	1094	0.000	1.000
	1095	KSH	3	LJB	SHK	1095	0.000	1.000
	1096	KSH	3	LJB	SHK	1096	0.000	1.000
	1097	KSH	3	LJB	SHK	1097	0.000	1.000
	1098	KSH	3	LJB	SHK	1098	0.000	1.000
	1099	KSH	3	LJB	SHK	1099	0.000	1.000
	1100	KSH	3	LJB	SHK	1100	0.000	1.000
	1101	KSH	3	LJB	SHK	1101	0.000	1.000
	1102	KSH	3	LJB	SHK	1102	0.000	1.000
	1103	KSH	3	LJB	SHK	1103	0.000	1.000
	1104	KSH	3	LJB	SHK	1104	0.000	1.000
	1105	KSH	3	LJB	SHK	1105	0.000	1.000
	1106	KSH	3	LJB	SHK	1106	0.000	1.000
	1107	KSH	3	LJB	SHK	1107	0.000	1.000
	1108	KSH	3	LJB	SHK	1108	0.000	1.000
	1109	KSH	3	LJB	SHK	1109	0.000	1.000
	1110	KSH	3	LJB	SHK	1110	0.000	1.000
	1111	KSH	3	LJB	SHK	1111	0.000	1.000
	1112	KSH	3	LJB	SHK	1112	0.000	1.000
	1113	KSH	3	LJB	SHK	1113	0.000	1.000
	1114	KSH	3	LJB	SHK	1114	0.000	1.000
	1115	KSH	3	LJB	SHK	1115	0.000	1.000
	1116	KSH	3	LJB	SHK	1116	0.000	1.000
	1117	KSH	3	LJB	SHK	1117	0.000	1.000
	1118	KSH	3	LJB	SHK	1118	0.000	1.000
	1119	KSH	3	LJB	SHK	1119	0.000	1.000
	1120	KSH	3	LJB	SHK	1120	0.000	1.000
	1121	KSH	3	LJB	SHK	1121	0.000	1.000
	1122	KSH	3	LJB	SHK	1122	0.000	1.000
	1123	KSH	3	LJB	SHK	1123	0.000	1.000
	1124	KSH	3	LJB	SHK	1124	0.000	1.000
	1125	KSH	3	LJB	SHK	1125	0.000	1.000
	1126	KSH	3	LJB	SHK	1126	0.000	1.000
	1127	KSH	3	LJB	SHK	1127	0.000	1.000
	1128	KSH	3	LJB	SHK	1128	0.000	1.000
	1129	KSH	3	LJB	SHK	1129	0.000	1.000
	1130	KSH	3	LJB	SHK	1130	0.000	1.000
	1131	KSH	3	LJB	SHK	1131	0.000	1.000
	1132	KSH	3	LJB	SHK	1132	0.000	1.000
	1133	KSH	3	LJB	SHK	1133	0.000	1.000
	1134	KSH	3	LJB	SHK	1134	0.000	1.000
	1135	KSH	3	LJB	SHK	1135	0.000	1.000
	1136	KSH	3	LJB	SHK	1136	0.000	1.000
	1137	KSH	3	LJB	SHK	1137	0.000	1.000
	1138	KSH	3	LJB	SHK	1138	0.000	1.000
	1139	KSH	3	LJB	SHK	1139	0.000	1.000
	1140	KSH	3	LJB	SHK	1140	0.000	1.000
	1141	KSH	3	LJB	SHK	1141	0.000	1.000
	1142	KSH	3	LJB	SHK	1142	0.000	1.000
	1143	KSH	3	LJB	SHK	1143	0.000	1.000
	1144	KSH	3	LJB	SHK	1144	0.000	1.000
	1145	KSH	3	LJB	SHK	1145	0.000	1.000
	1146	KSH	3	LJB	SHK	1146	0.000	1.000
	1147	KSH	3	LJB	SHK	1147	0.000	1.000
	1148	KSH	3	LJB	SHK	1148	0.000	1.000
	1149	KSH	3	LJB	SHK	1149	0.000	1.000
	1150	KSH	3	LJB	SHK	1150	0.000	1.000
	1151	KSH	3	LJB	SHK	1151	0.000	1.000
	1152	KSH	3	LJB	SHK	1152	0.000	1.000
	1153	KSH	3	LJB	SHK	1153	0.000	1.000
	1154	KSH	3	LJB	SHK	1154	0.000	1.000
	1155	KSH	3	LJB	SHK	1155	0.000	1.000
	1156	KSH	3	LJB	SHK	1156	0.000	1.000
	1157	KSH	3	LJB	SHK	1157	0.000	1.000
	1158	KSH	3	LJB	SHK	1158	0.000	1.000
	1159	KSH	3	LJB	SHK	1159	0.000	1.000
	1160	KSH	3	LJB	SHK	1160	0.000	1.000
	1161	KSH	3	LJB	SHK	1161	0.000	1.000
	1162	KSH	3	LJB	SHK	1162	0.000	1.000
	1163	KSH	3	LJB	SHK	1163	0.000	1.000
	1164	KSH	3	LJB	SHK	1164	0.000	1.000
	1165	KSH	3	LJB	SHK	1165	0.000	1.000
	1166	KSH	3	LJB	SHK	1166	0.000	1.000
	1167	KSH	3	LJB	SHK	1167	0.000	1.000
	1168	KSH	3	LJB	SHK	1168	0.000	1.000
	1169	KSH	3	LJB	SHK	1169	0.000	1.000
	1170	KSH	3	LJB	SHK	1170	0.000	1.000
	1171	KSH	3	LJB	SHK	1171	0.000	1.000
	1172	KSH	3	LJB	SHK	1172	0.000	1.000
	1173	KSH	3	LJB	SHK	1173	0.000	1.000
	1174	KSH	3	LJB	SHK	1174	0.000	1.000
	1175	KSH	3	LJB	SHK	1175	0.000	1.000
	1176	KSH	3	LJB	SHK	1176	0.000	1.000
	1177	KSH	3	LJB	SHK	1177	0.000	1.000
	1178	KSH	3	LJB	SHK	1178	0.000	1.000
	1179	KSH	3	LJB	SHK	1179	0.000	1.000
	1180	KSH	3	LJB	SHK	1180	0.000	1.000
	1181	KSH	3	LJB	SHK	1181	0.000	1.000
	1182	KSH	3	LJB	SHK	1182	0.000	1.000
	1183	KSH	3	LJB	SHK	1183	0.000	1.000
	1184	KSH	3	LJB	SHK	1184	0.000	1.000
	1185	KSH	3	LJB	SHK	1185	0.000	1.000
	1186	KSH	3	LJB	SHK	1186	0.000	1.000
	1187	KSH	3	LJB	SHK	1187	0.000	1.000
	1188	KSH	3	LJB	SHK	1188	0.000	1.000
	1189	KSH	3	LJB	SHK	1189	0.000	1.000
	1190	KSH	3	LJB	SHK	1190	0.000	1.000
	1191	KSH	3	LJB	SHK	1191	0.000	1.000
	1192	KSH	3	LJB	SHK	1192	0.000	1.000
	1193	KSH	3	LJB	SHK	1193	0.000	1.000
	1194	KSH	3	LJB	SHK	1194	0.000	1.000
	1195	KSH	3	LJB	SHK	1195	0.000	1.000
	1196	KSH	3	LJB	SHK	1196	0.000	1.000
	1197	KSH	3	LJB	SHK	1197	0.000	1.000
	1198	KSH	3	LJB	SHK	1198	0.000	1.000
	1199	KSH	3	LJB	SHK	1199	0.000	1.000
	1200	KSH	3	LJB	SHK	1200	0.000	1.000
	1201	KSH	4	LJB	SHK	1201	0.000	1.000
	1202	KSH	4	LJB	SHK	1202	0.000	1.000
	1203	KSH	4	LJB	SHK	1203	0.000	1.000
	1204	KSH	4	LJB	SHK	1204	0.000	1.000
	1205	KSH	4	LJB	SHK	1205	0.000	1.000
	1206	KSH	4	LJB	SHK	1206	0.000	1.000
	1207	KSH	4	LJB	SHK	1207	0.000	1.000
	1208	KSH	4	LJB	SHK	1208	0.000	1.000
	1209	KSH	4	LJB	SHK	1209	0.000	1.000
	1210	KSH	4	LJB	SHK	1210	0.000	1.000
	1211	KSH	4	LJB	SHK	1211	0.000	1.000
	1212	KSH	4	LJB	SHK	1212	0.000	1.000
	1213	KSH	4	LJB	SHK	1213	0.000	1.000
	1214	KSH	4	LJB	SHK	1214	0.000	1.000
	1215	KSH	4	LJB	SHK	1215	0.000	1.000
	1216	KSH	4	LJB	SHK	1216	0.000	1.000
	1217	KSH	4	LJB	SHK	1217	0.000	1.000
	1218	KSH	4	LJB	SHK	1218	0.000	1.000
	1219	KSH	4	LJB	SHK	1219	0.000	1.000
	1220	KSH	4	LJB	SHK	1220	0.000	1.000
	1221	KSH	4	LJB	SHK	1221	0.000	1.000
	1222	KSH	4	LJB	SHK	1222	0.000	1.000
	1223	KSH	4	LJB	SHK	1223	0.000	1.000
	1224	KSH	4	LJB	SHK	1224	0.000	1.000
	1225	KSH	4	LJB	SHK	1225	0.000	1.000
	1226	KSH	4	LJB	SHK	1226	0.000	1.000
	1227	KSH	4	LJB	SHK	1227	0.000	1.000
	1228	KSH	4	LJB	SHK	1228	0.000	1.000
	1229	KSH	4	LJB	SHK	1229	0.000	1.000
	1230	KSH	4	LJB	SHK	1230	0.000	1.000
	1231	KSH	4	LJB	SHK	1231	0.000	1.000
	1232	KSH	4	LJB	SHK	1232	0.000	1.000
	1233	KSH	4	LJB	SHK	1233	0.000	1.000
	1234	KSH	4	LJB	SHK	1234	0.000	1.000
	1235	KSH	4	LJB	SHK	1235	0.000	1.000
	1236	KSH	4	LJB	SHK	1236	0.000	1.000
	1237	KSH	4	LJB	SHK	1237	0.000	1.000
	1238	KSH	4	LJB	SHK	1238	0.000	1.000
	1239	KSH	4	LJB	SHK	1239	0.000	1.000
	1240	KSH	4	LJB	SHK	1240	0.000	1.000
	1241	KSH	4	LJB	SHK	1241	0.000	1.000
	1242	KSH	4	LJB	SHK	1242	0.000	1.000
	1243	KSH	4	LJB	SHK	1243	0.000	1.000
	1244	KSH	4	LJB	SHK	1244	0.000	1.000
	1245	KSH	4	LJB	SHK	1245	0.000	1.000
	1246	KSH	4	LJB	SHK	1246	0.000	1.000
	1247	KSH	4	LJB	SHK	1247	0.000	1.000
	1248	KSH	4	LJB	SHK	1248	0.000	1.000
	1249	KSH	4	LJB	SHK	1249	0.000	1.000
	1250	KSH	4	LJB	SHK	1250	0.000	1.000
	1251	KSH	4	LJB	SHK	1251	0.000	1.000
	1252	KSH	4	LJB	SHK	1252	0.000	1.000
	1253	KSH	4	LJB	SHK	1253	0.000	1.000
	1254	KSH	4	LJB	SHK	1254	0.000	1.000
	1255	KSH	4	LJB	SHK	1255	0.000	1.000
	1256	KSH	4	LJB	SHK	1256	0.000	1.000
	1257	KSH	4	LJB	SHK	1257	0.000	1.000
	1258	KSH	4	LJB	SHK	1258	0.000	1.000
	1259	KSH	4	LJB	SHK	1259	0.000	1.000
	1260	KSH	4	LJB	SHK	1260	0.000	1.000
	1261	KSH	4	LJB	SHK	1261	0.000	1.000
	1262	KSH	4	LJB	SHK	1262	0.000	1.000
	1263	KSH	4	LJB	SHK	1263	0.000	1.000
	1264	KSH	4	LJB	SHK	1264	0.000	1.000
	1265	KSH	4	LJB	SHK	1265	0.000	1.000
	1266	KSH	4	LJB	SHK	1266	0.000	1.000
	1267	KSH	4	LJB	SHK	1267	0.000	1.000
	1268	KSH	4	LJB	SHK	1268	0.000	1.000
	1269	KSH	4	LJB	SHK	1269	0.000	1.000
	1270	KSH	4	LJB	SHK	1270	0.000	1.000
	1271	KSH	4	LJB	SHK	1271	0.000	1.000
	1272	KSH	4	LJB	SHK	1272	0.000	1.000
	1273	KSH	4	LJB	SHK	1273	0.000	1.000
	1274	KSH	4	LJB	SHK	1274	0.000	1.000
	1275	KSH	4	LJB	SHK	1275	0.000	1.000
	1276	KSH	4	LJB	SHK	1276	0.000	1.000
	1277	KSH	4	LJB	SHK	1277	0.000	1.000
	1278	KSH	4	LJB	SHK	1278	0.000	1.000
	1279	KSH	4	LJB	SHK	1279	0.000	1.000
	1280	KSH	4	LJB	SHK	1280	0.000	1.000
	1281	KSH	4	LJB	SHK	1281	0.000	1.000
	1282	KSH	4	LJB	SHK	1282	0.000	1.000
	1283	KSH	4	LJB	SHK	1283	0.000	1.000
	1284	KSH	4	LJB	SHK	1284	0.000	1.000
	1285	KSH	4	LJB	SHK	1285	0.000	1.000
	1286	KSH	4	LJB	SHK	1286	0.000	1.000
	1287	KSH	4	LJB	SHK	1287	0.000	1.000
	1288	KSH	4	LJB	SHK	1288	0.000	1.000
	1289	KSH	4	LJB	SHK	1289	0.000	1.000
	1290	KSH	4	LJB	SHK	1290	0.000	1.000
	1291	KSH	4	LJB	SHK	1291	0.000	1.000
	1292	KSH	4	LJB	SHK	1292	0.000	1.000
	1293	KSH	4	LJB	SHK	1293	0.000	1.000
	1294	KSH	4	LJB	SHK	1294	0.000	1.000
	1295	KSH	4	LJB	SHK	1295	0.000	1.000
	1296	KSH	4	LJB	SHK	1296	0.000	1.000
	1297	KSH	4	LJB	SHK	1297	0.000	1.000
	1298	KSH	4	LJB	SHK	1298	0.000	1.000
	1299	KSH	4	LJB	SHK	1299	0.000	1.000
	1300	KSH	4	LJB	SHK	1300	0.000	1.000
	1301	KSH	4	LJB	SHK	1301	0.000	1.000
	1302	KSH	4	LJB	SHK	1302	0.000	1.000
	1303	KSH	4	LJB	SHK	1303	0.000	1.000
	1304	KSH	4	LJB	SHK	1304	0.000	1.000
	1305	KSH	4	LJB	SHK	1305	0.000	1.000
	1306	KSH	4	LJB	SHK	1306	0.000	1.000
	1307	KSH	4	LJB	SHK	1307	0.000	1.000
	1308	KSH	4	LJB	SHK	1308	0.000	1.000
	1309	KSH	4	LJB	SHK	1309	0.000	1.000
	1310	KSH	4	LJB	SHK	1310	0.000	1.000
	1311	KSH	4	LJB	SHK	1311	0.000	1.000
	1312	KSH	4	LJB	SHK	1312	0.000	1.000
	1313	KSH	4	LJB	SHK	1313	0.000	1.000
	1314	KSH	4	LJB	SHK	1314	0.000	1.000
	1315	KSH	4	LJB	SHK	1315	0.000	1.000
	1316	KSH	4	LJB	SHK	1316	0.000	1.000
	1317	KSH	4	LJB	SHK	1317	0.000	1.000
	1318	KSH	4	LJB	SHK	1318	0.000	1.000
	1319	KSH	4	LJB	SHK	1319	0.000	1.000
	1320	KSH	4	LJB	SHK	1320	0.000	1.000
	1321	KSH	4	LJB	SHK	1321	0.000	1.000
	1322	KSH	4	LJB	SHK	1322	0.000	1.000
	1323	KSH	4	LJB	SHK	1323	0.000	1.000
	1324	KSH	4	LJB	SHK	1324	0.000	1.000
	1325	KSH	4	LJB	SHK	1325	0.000	1.000
	1326	KSH	4	LJB	SHK	1326	0.000	1.000
	1327	KSH	4	LJB	SHK	1327	0.000	1.000
	1328	KSH	4	LJB	SHK	1328	0.000	1.000
	1329	KSH	4	LJB	SHK	1329	0.000	1.000
	1330	KSH	4	LJB	SHK	1330	0.000	1.000
	1331	KSH	4	LJB	SHK	1331	0.000	1.000
	1332	KSH	4	LJB	SHK	1332	0.000	1.000
	1333	KSH	4	LJB	SHK	1333	0.000	1.000
	1334	KSH	4	LJB	SHK	1334	0.000	1.000
	1335	KSH	4	LJB	SHK	1335	0.000	1.000
	1336	KSH	4	LJB	SHK	1336	0.000	1.000
	1337	KSH	4	LJB	SHK	1337	0.000	1.000
	1338	KSH	4	LJB	SHK	1338	0.000	1.000
	1339	KSH	4	LJB	SHK	1339	0.000	1.000
	1340	KSH	4	LJB	SHK	1340	0.000	1.000
	1341	KSH	4	LJB	SHK	1341	0.000	1.000
	1342	KSH	4	LJB	SHK	1342	0.000	1.000
	1343	KSH	4	LJB	SHK	1343	0.000	1.000
	1344	KSH	4	LJB	SHK	1344	0.000	1.000
	1345	KSH	4	LJB	SHK	1345	0.000	1.000
	1346	KSH	4	LJB	SHK	1346	0.000	1.000
	1347	KSH	4	LJB	SHK	1347	0.000	1.000
	1348	KSH	4	LJB	SHK	1348	0.000	1.000
	1349	KSH	4	LJB	SHK	1349	0.000	1.000
	1350	KSH	4	LJB	SHK	1350	0.000	1.000
	1351	KSH	4	LJB	SHK	1351	0.000	1.000
	1352	KSH	4	LJB	SHK	1352	0.000	1.000
	1353	KSH	4	LJB	SHK	1353	0.000	1.000
	1354	KSH	4	LJB	SHK	1354	0.000	1.000
	1355	KSH	4	LJB	SHK	1355	0.000	1.000
	1356	KSH	4	LJB	SHK	1356	0.000	1.000
	1357	KSH	4	LJB	SHK	1357	0.000	1.000
	1358	KSH	4	LJB	SHK	1358	0.000	1.000
	1359	KSH	4	LJB	SHK	1359	0.000	1.000
	1360	KSH	4	LJB	SHK	1360	0.000	1.000
	1361	KSH	4	LJB	SHK	1361	0.000	1.000
	1362	KSH	4	LJB	SHK	1362	0.000	1.000
	1363	KSH	4	LJB	SHK	1363	0.000	1.000
	1364	KSH	4	LJB	SHK	1364	0.000	1.000
	1365	KSH	4	LJB	SHK	1365	0.000	1.000
	1366	KSH	4	LJB	SHK	1366	0.000	1.000
	1367	KSH	4	LJB	SHK	1367	0.000	1.000
	1368	KSH	4	LJB	SHK	1368	0.000	1.000
	1369	KSH	4	LJB	SHK	1369	0.000	1.000
	1370	KSH	4	LJB	SHK	1370	0.000	1.000
	1371	KSH	4	LJB	SHK	1371	0.000	1.000
	1372	KSH	4	LJB	SHK	1372	0.000	1.000
	1373	KSH	4	LJB	SHK	1373	0.000	1.000
	1374	KSH	4	LJB	SHK	1374	0.000	1.000
	1375	KSH	4	LJB	SHK	1375	0.000	1.000
	1376	KSH	4	LJB	SHK	1376	0.000	1.000
	1377	KSH	4	LJB	SHK	1377	0.000	1.000
	1378	KSH	4	LJB	SHK	1378	0.000	1.000
	1379	KSH	4	LJB	SHK	1379	0.000	1.000
	1380	KSH	4	LJB	SHK	1380	0.000	1.000
	1381	KSH	4	LJB	SHK	1381	0.000	1.000
	1382	KSH	4	LJB	SHK	1382	0.000	1.000
	1383	KSH	4	LJB	SHK	1383	0.000	1.000
	1384	KSH	4	LJB	SHK	1384	0.000	1.000
	1385	KSH	4	LJB	SHK	1385	0.000	1.000
	1386	KSH	4	LJB	SHK	1386	0.000	1.000
	1387	KSH	4	LJB	SHK	1387	0.000	1.000
	1388	KSH	4	LJB	SHK	1388	0.000	1.000
	1389	KSH	4	LJB	SHK	1389	0.000	1.000
	1390	KSH	4	LJB	SHK	1390	0.000	1.000
	1391	KSH	4	LJB	SHK	1391	0.000	1.000
	1392	KSH	4	LJB	SHK	1392	0.000	1.000
	1393	KSH	4	LJB	SHK	1393	0.000	1.000
	1394	KSH	4	LJB	SHK	1394	0.000	1.000
	1395	KSH	4	LJB	SHK	1395	0.000	1.000
	1396	KSH	4	LJB	SHK	1396	0.000	1.000
	1397	KSH	4	LJB	SHK	1397	0.000	1.000
	1398	KSH	4	LJB	SHK	1398	0.000	1.000
	1399	KSH	4	LJB	SHK	1399	0.000	1.000
	1400	KSH	4	LJB	SHK	1400	0.000	1.000
	1401	KSH	4	LJB	SHK	1401	0.000	1.000
	1402	KSH	4	LJB	SHK	1402	0.000	1.000
	1403	KSH	4	LJB	SHK	1403	0.000	1.000
	1404	KSH	4	LJB	SHK	1404	0.000	1.000
	1405	KSH	4	LJB	SHK	1405	0.000	1.000
	1406	KSH	4	LJB	SHK	1406	0.000	1.000
	1407	KSH	4	LJB	SHK	1407	0.000	1.000
	1408	KSH	4	LJB	SHK	1408	0.000	1.000
	1409	KSH	4	LJB	SHK	1409	0.000	1.000
	1410	KSH	4	LJB	SHK	1410	0.000	1.000
	1411	KSH	4	LJB	SHK	1411	0.000	1.000
	1412	KSH	4	LJB	SHK	1412	0.000	1.000
	1413	KSH	4	LJB	SHK	1413	0.000	1.000
	1414	KSH	4	LJB	SHK	1414	0.000	1.000
	1415	KSH	4	LJB	SHK	1415	0.000	1.000
	1416	KSH	4	LJB	SHK	1416	0.000	1.000
	1417	KSH	4	LJB	SHK	1417	0.000	1.000
	1418	KSH	4	LJB	SHK	1418	0.000	1.000
	1419	KSH	4	LJB	SHK	1419	0.000	1.000
	1420	KSH	4	LJB	SHK	1420	0.000	1.000
	1421	KSH	4	LJB	SHK	1421	0.000	1.000
	1422	KSH	4	LJB	SHK	1422	0.000	1.000
	1423	KSH	4	LJB	SHK	1423	0.000	1.000
	1424	KSH	4	LJB	SHK	1424	0.000	1.000
	1425	KSH	4	LJB	SHK	1425	0.000	1.000
	1426	KSH	4	LJB	SHK	1426	0.000	1.000
	1427	KSH	4	LJB	SHK	1427	0.000	1.000
	1428	KSH	4	LJB	SHK	1428	0.000	1.000
	1429	KSH	4	LJB	SHK	1429	0.000	1.000
	1430	KSH	4	LJB	SHK	1430	0.000	1.000
	1431	KSH	4	LJB	SHK	1431	0.000	1.000
	1432	KSH	4	LJB	SHK	1432	0.000	1.000
	1433	KSH	4	LJB	SHK	1433	0.000	1.000
	1434	KSH	4	LJB	SHK	1434	0.000	1.000
	1435	KSH	4	LJB	SHK	1435	0.000	1.000
	1436	KSH	4	LJB	SHK	1436	0.000	1.000
	1437	KSH	4	LJB	SHK	1437	0.000	1.000
	1438	KSH	4	LJB	SHK	1438	0.000	1.000
	1439	KSH	4	LJB	SHK	1439	0.000	1.000
	1440	KSH	4	LJB	SHK	1440	0.000	1.000
	1441	KSH	4	LJB	SHK	1441	0.000	1.000
	1442	KSH	4	LJB	SHK	1442	0.000	1.000
	1443	KSH	4	LJB	SHK	1443	0.000	1.000
	1444	KSH	4	LJB	SHK	1444	0.000	1.000
	1445	KSH	4	LJB	SHK	1445	0.000	1.000
	1446	KSH	4	LJB	SHK	1446	0.000	1.000
	1447	KSH	4	LJB	SHK	1447	0.000	1.000
	1448	KSH	4	LJB	SHK	1448	0.000	1.000
	1449	KSH	4	LJB	SHK	1449	0.000	1.000
	1450	KSH	4	LJB	SHK	1450	0.000	1.000
	1451	KSH	4	LJB	SHK	1451	0.000	1.000
	1452	KSH	4	LJB	SHK	1452	0.000	1.000
	1453	KSH	4	LJB	SHK	1453	0.000	1.000
	1454	KSH	4	LJB	SHK	1454	0.000	1.000
	1455	KSH	4	LJB	SHK	1455	0.000	1.000
	1456	KSH	4	LJB	SHK	1456	0.000	1.000
	1457	KSH	4	LJB	SHK	1457	0.000	1.000
	1458	KSH	4	LJB	SHK	1458	0.000	1.000
	1459	KSH	4	LJB	SHK	1459	0.000	1.000
	1460	KSH	4	LJB	SHK	1460	0.000	1.000
	1461	KSH	4	LJB	SHK	1461	0.000	1.000
	1462	KSH	4	LJB	SHK	1462	0.000	1.000
	1463	KSH	4	LJB	SHK	1463	0.000	1.000
	1464	KSH	4	LJB	SHK	1464	0.000	1.000
	1465	KSH	4	LJB	SHK	1465	0.000	1.000
	1466	KSH	4	LJB	SHK	1466	0.000	1.000
	1467	KSH	4	LJB	SHK	1467	0.000	1.000
	1468	KSH	4	LJB	SHK	1468	0.000	1.000
	1469	KSH	4	LJB	SHK	1469	0.000	1.000
	1470	KSH	4	LJB	SHK	1470	0.000	1.000
	1471	KSH	4	LJB	SHK	1471	0.000	1.000
	1472	KSH	4	LJB	SHK	1472	0.000	1.000
	1473	KSH	4	LJB	SHK	1473	0.000	1.000
	1474	KSH	4	LJB	SHK	1474	0.000	1.000
	1475	KSH	4	LJB	SHK	1475	0.000	1.000
	1476	KSH	4	LJB	SHK	1476	0.000	1.000
	1477	KSH	4	LJB	SHK	1477	0.000	1.000
	1478	KSH	4	LJB	SHK	1478	0.000	1.000
	1479	KSH	4	LJB	SHK	1479	0.000	1.000
	1480	KSH	4	LJB	SHK	1480	0.000	1.000
	1481	KSH	4	LJB	SHK	1481	0.000	1.000
	1482	KSH	4	LJB	SHK	1482	0.000	1.000
	1483	KSH	4	LJB	SHK	1483	0.000	1.000
	1484	KSH	4	LJB	SHK	1484	0.000	1.000
	1485	KSH	4	LJB	SHK	1485	0.000	1.000
	1486	KSH	4	LJB	SHK	1486	0.000	1.000
	1487	KSH	4	LJB	SHK	1487	0.000	1.000
	1488	KSH	4	LJB	SHK	1488	0.000	1.000
	1489	KSH	4	LJB	SHK	1489	0.000	1.000
	1490	KSH	4	LJB	SHK	1490	0.000	1.000
	1491	KSH	4	LJB	SHK	1491	0.000	1.000
	1492	KSH	4	LJB	SHK	1492	0.000	1.000
	1493	KSH	4	LJB	SHK	1493	0.000	1.000
	1494	KSH	4	LJB	SHK	1494	0.000	1.000
	1495	KSH	4	LJB	SHK	1495	0.000	1.000
	1496	KSH	4	LJB	SHK	1496	0.000	1.000
	1497	KSH	4	LJB	SHK	1497	0.000	1.000
	1498	KSH	4	LJB	SHK	1498	0.000	1.000
	1499	KSH	4	LJB	SHK	1499	0.000	1.000
	1500	KSH	4	LJB	SHK	1500	0.000	1.000
	1501	KSH	4	LJB	SHK	1501	0.000	1.000
	1502	KSH	4	LJB	SHK	1502	0.000	1.000
	1503	KSH	4	LJB	SHK	1503	0.000	1.000
	1504	KSH	4	LJB	SHK	1504	0.000	1.000
	1505	KSH	4	LJB	SHK	1505	0.000	1.000
	1506	KSH	4	LJB	SHK	1506	0.000	1.000
	1507	KSH	4	LJB	SHK	1507	0.000	1.000
	1508	KSH	4	LJB	SHK	1508	0.000	1.000
	1509	KSH	4	LJB	SHK	1509	0.000	1.000
	1510	KSH	4	LJB	SHK	1510	0.000	1.000
	1511	KSH	4	LJB	SHK	1511	0.000	1.000
	1512	KSH	4	LJB	SHK	1512	0.000	1.000
	1513	KSH	4	LJB	SHK	1513	0.000	1.000
	1514	KSH	4	LJB	SHK	1514	0.000	1.000
	1515	KSH	4	LJB	SHK	1515	0.000	1.000
	1516	KSH	4	LJB	SHK	1516	0.000	1.000
	1517	KSH	4	LJB	SHK	1517	0.000	1.000
	1518	KSH	4	LJB	SHK	1518	0.000	1.000
	1519	KSH	4	LJB	SHK	1519	0.000	1.000
	1520	KSH	4	LJB	SHK	1520	0.000	1.000
	1521	KSH	4	LJB	SHK	1521	0.000	1.000
	1522	KSH	4	LJB	SHK	1522	0.000	1.000
	1523	KSH	4	LJB	SHK	1523	0.000	1.000
	1524	KSH	4	LJB	SHK	1524	0.000	1.000
	1525	KSH	4	LJB	SHK	1525	0.000	1.000
	1526	KSH	4	LJB	SHK	1526	0.000	1.000
	1527	KSH	4	LJB	SHK	1527	0.000	1.000
	1528	KSH	4	LJB	SHK	1528	0.000	1.000
	1529	KSH	4	LJB	SHK	1529	0.000	1.000
	1530	KSH	4	LJB	SHK	1530	0.000	1.000
	1531	KSH	4	LJB	SHK	1531	0.000	1.000
	1532	KSH	4	LJB	SHK	1532	0.000	1.000
	1533	KSH	4	LJB	SHK	1533	0.000	1.000
	1534	KSH	4	LJB	SHK	1534	0.000	1.000
	1535	KSH	4	LJB	SHK	1535	0.000	1.000
	1536	KSH	4	LJB	SHK	1536	0.000	1.000
	1537	KSH	4	LJB	SHK	1537	0.000	1.000
	1538	KSH	4	LJB	SHK	1538	0.000	1.000
	1539	KSH	4	LJB	SHK	1539	0.000	1.000
	1540	KSH	4	LJB	SHK	1540	0.000	1.000
	1541	KSH	4	LJB	SHK	1541	0.000	1.000
	1542	KSH	4	LJB	SHK	1542	0.000	1.000
	1543	KSH	4	LJB	SHK	1543	0.000	1.000
	1544	KSH	4	LJB	SHK	1544	0.000	1.000
	1545	KSH	4	LJB	SHK	1545	0.000	1.000
	1546	KSH	4	LJB	SHK	1546	0.000	1.000
	1547	KSH	4	LJB	SHK	1547	0.000	1.000
	1548	KSH	4	LJB	SHK	1548	0.000	1.000
	1549	KSH	4	LJB	SHK	1549	0.000	1.000
	1550	KSH	4	LJB	SHK	1550	0.000	1.000
	1551	KSH	4	LJB	SHK	1551	0.000	1.000
	1552	KSH	4	LJB	SHK	1552	0.000	1.000
	1553	KSH	4	LJB	SHK	1553	0.000	1.000
	1554	KSH	4	LJB	SHK	1554	0.000	1.000
	1555	KSH	4	LJB	SHK	1555	0.000	1.000
	1556	KSH	4	LJB	SHK	1556	0.000	1.000
	1557	KSH	4	LJB	SHK	1557	0.000	1.000
	1558	KSH	4	LJB	SHK	1558	0.000	1.000
	1559	KSH	4	LJB	SHK	1559	0.000	1.000
	1560	KSH	4	LJB	SHK	1560	0.000	1.000
	1561	KSH	4	LJB	SHK	1561	0.000	1.000
	1562	KSH	4	LJB	SHK	1562	0.000	1.000
	1563	KSH	4	LJB	SHK	1563	0.000	1.000
	1564	KSH	4	LJB	SHK	1564	0.000	1.000
	1565	KSH	4	LJB	SHK	1565	0.000	1.000
	1566	KSH	4	LJB	SHK	1566	0.000	1.000
	1567	KSH	4	LJB	SHK	1567	0.000	1.000
	1568	KSH	4	LJB	SHK	1568	0.000	1.000
	1569	KSH	4	LJB	SHK	1569	0.000	1.000
	1570	KSH	4	LJB	SHK	1570	0.000	1.000
	1571	KSH	4	LJB	SHK	1571	0.000	1.000
	1572	KSH	4	LJB	SHK	1572	0.000	1.000
	1573	KSH	4	LJB	SHK	1573	0.000	1.000
	1574	KSH	4	LJB	SHK	1574	0.000	1.000
	1575	KSH	4	LJB	SHK	1575	0.000	1.000
	1576	KSH	4	LJB	SHK	1576	0.000	1.000
	1577	KSH	4	LJB	SHK	1577	0.000	1.000
	1578	KSH	4	LJB	SHK	1578	0.000	1.000
	1579	KSH	4	LJB	SHK	1579	0.000	1.000
	1580	KSH	4	LJB	SHK	1580	0.000	1.000
	1581	KSH	4	LJB	SHK	1581	0.000	1.000
	1582	KSH	4	LJB	SHK	1582	0.000	1.000
	1583	KSH	4	LJB	SHK	1583	0.000	1.000
	1584	KSH	4	LJB	SHK	1584	0.000	1.000
	1585	KSH	4	LJB	SHK	1585	0.000	1.000
	1586	KSH	4	LJB	SHK	1586	0.000	1.000
	1587	KSH	4	LJB	SHK	1587	0.000	1.000
	1588	KSH	4	LJB	SHK	1588	0.000	1.000
	1589	KSH	4	LJB	SHK	1589	0.000	1.000
	1590	KSH	4	LJB	SHK	1590	0.000	1.000
	1591	KSH	4	LJB	SHK	1591	0.000	1.000
	1592	KSH	4	LJB	SHK	1592	0.000	1.000
	1593	KSH	4	LJB	SHK	1593	0.000	1.000
	1594	KSH	4	LJB	SHK	1594	0.000	1.000
	1595	KSH	4	LJB	SHK	1595	0.000	1.000
	1596	KSH	4	LJB	SHK	1596	0.000	1.000
	1597	KSH	4	LJB	SHK	1597	0.000	1.000
	1598	KSH	4	LJB	SHK	1598	0.000	1.000
	1599	KSH	4	LJB	SHK	1599	0.000	1.000
	1600	KSH	4	LJB	SHK	1600	0.000	1.000
	1601	ASH	5	LJS	SHA	1601	0.000	1.000
	1602	ASH	5	LJS	SHA	1602	0.000	1.000
	1603	ASH	5	LJS	SHA	1603	0.000	1.000
	1604	ASH	5	LJS	SHA	1604	0.000	1.000
	1605	ASH	5	LJS	SHA	1605	0.000	1.000
	1606	ASH	5	LJS	SHA	1606	0.000	1.000
	1607	ASH	5	LJS	SHA	1607	0.000	1.000
	1608	ASH	5	LJS	SHA	1608	0.000	1.000
	1609	ASH	5	LJS	SHA	1609	0.000	1.000
	1610	ASH	5	LJS	SHA	1610	0.000	1.000
	1611	ASH	5	LJS	SHA	1611	0.000	1.000
	1612	ASH	5	LJS	SHA	1612	0.000	1.000
	1613	ASH	5	LJS	SHA	1613	0.000	1.000
	1614	BSH	5	LJS	SHB	1614	0.000	1.000
	1615	ASH	5	LJS	SHA	1615	0.000	1.000
	1616	ASH	5	LJS	SHA	1616	0.000	1.000
	1617	ASH	5	LJS	SHA	1617	0.000	1.000
	1618	ASH	5	LJS	SHA	1618	0.000	1.000
	1619	ASH	5	LJS	SHA	1619	0.000	1.000
	1620	ASH	5	LJS	SHA	1620	0.000	1.000
	1621	ASH	5	LJS	SHA	1621	0.000	1.000
	1622	ASH	5	LJS	SHA	1622	0.000	1.000
	1623	ASH	5	LJS	SHA	1623	0.000	1.000
	1624	ASH	5	LJS	SHA	1624	0.000	1.000
	1625	ASH	5	LJS	SHA	1625	0.000	1.000
	1626	ASH	5	LJS	SHA	1626	0.000	1.000
	1627	ASH	5	LJS	SHA	1627	0.000	1.000
	1628	ASH	5	LJS	SHA	1628	0.000	1.000
	1629	ASH	5	LJS	SHA	1629	0.000	1.000
	1630	ASH	5	LJS	SHA	1630	0.000	1.000
	1631	ASH	5	LJS	SHA	1631	0.000	1.000
	1632	ASH	5	LJS	SHA	1632	0.000	1.000
	1633	ASH	5	LJS	SHA	1633	0.000	1.000
	1634	ASH	5	LJS	SHA	1634	0.000	1.000
	1635	ASH	5	LJS	SHA	1635	0.000	1.000
	1636	ASH	5	LJS	SHA	1636	0.000	1.000
	1637	ASH	5	LJS	SHA	1637	0.000	1.000
	1638	ASH	5	LJS	SHA	1638	0.000	1.000
	1639	ASH	5	LJS	SHA	1639	0.000	1.000
	1640	ASH	5	LJS	SHA	1640	0.000	1.000
	1641	ASH	5	LJS	SHA	1641	0.000	1.000
	1642	ASH	5	LJS	SHA	1642	0.000	1.000
	1643	ASH	5	LJS	SHA	1643	0.000	1.000
	1644	ASH	5	LJS	SHA	1644	0.000	1.000
	1645	ASH	5	LJS	SHA	1645	0.000	1.000
	1646	ASH	5	LJS	SHA	1646	0.000	1.000
	1647	ASH	5	LJS	SHA	1647	0.000	1.000
	1648	ASH	5	LJS	SHA	1648	0.000	1.000
	1649	ASH	5	LJS	SHA	1649	0.000	1.000
	1650	ASH	5	LJS	SHA	1650	0.000	1.000
	1651	ASH	5	LJS	SHA	1651	0.000	1.000
	1652	ASH	5	LJS	SHA	1652	0.000	1.000
	1653	ASH	5	LJS	SHA	1653	0.000	1.000
	1654	ASH	5	LJS	SHA	1654	0.000	1.000
	1655	ASH	5	LJS	SHA	1655	0.000	1.000
	1656	ASH	5	LJS	SHA	1656	0.000	1.000
	1657	ASH	5	LJS	SHA	1657	0.000	1.000
	1658	ASH	5	LJS	SHA	1658	0.000	1.000
	1659	BSH	5	LJS	SHB	1659	0.000	1.000
	1660	ASH	5	LJS	SHA	1660	0.000	1.000
	1661	BSH	5	LJS	SHB	1661	0.000	1.000
	1662	ASH	5	LJS	SHA	1662	0.000	1.000
	1663	BSH	5	LJS	SHB	1663	0.000	1.000
	1664	ASH	5	LJS	SHA	1664	0.000	1.000
	1665	ASH	5	LJS	SHA	1665	0.000	1.000
	1666	ASH	5	LJS	SHA	1666	0.000	1.000
	1667	ASH	5	LJS	SHA	1667	0.000	1.000
	1668	ASH	5	LJS	SHA	1668	0.000	1.000
	1669	BSH	5	LJS	SHB	1669	0.000	1.000
	1670	ASH	5	LJS	SHA	1670	0.000	1.000
	1671	ASH	5	LJS	SHA	1671	0.000	1.000
	1672	ASH	5	LJS	SHA	1672	0.000	1.000
	1673	ASH	5	LJS	SHA	1673	0.000	1.000
	1674	ASH	5	LJS	SHA	1674	0.000	1.000
	1675	ASH	5	LJS	SHA	1675	0.000	1.000
	1676	ASH	5	LJS	SHA	1676	0.000	1.000
	1677	ASH	5	LJS	SHA	1677	0.000	1.000
	1678	ASH	5	LJS	SHA	1678	0.000	1.000
	1679	BSH	5	LJS	SHB	1679	0.000	1.000
	1680	BSH	5	LJS	SHB	1680	0.000	1.000
	1681	ASH	5	LJS	SHA	1681	0.000	1.000
	1682	ASH	5	LJS	SHA	1682	0.000	1.000
	1683	BSH	5	LJS	SHB	1683	0.000	1.000
	1684	ASH	5	LJS	SHA	1684	0.000	1.000
	1685	ASH	5	LJS	SHA	1685	0.000	1.000
	1686	ASH	5	LJS	SHA	1686	0.000	1.000
	1687	ASH	5	LJS	SHA	1687	0.000	1.000
	1688	ASH	5	LJS	SHA	1688	0.000	1.000
	1689	ASH	5	LJS	SHA	1689	0.000	1.000
	1690	ASH	5	LJS	SHA	1690	0.000	1.000
	1691	ASH	5	LJS	SHA	1691	0.000	1.000
	1692	ASH	5	LJS	SHA	1692	0.000	1.000
	1693	ASH	5	LJS	SHA	1693	0.000	1.000
	1694	ASH	5	LJS	SHA	1694	0.000	1.000
	1695	ASH	5	LJS	SHA	1695	0.000	1.000
	1696	ASH	5	LJS	SHA	1696	0.000	1.000
	1697	ASH	5	LJS	SHA	1697	0.000	1.000
	1698	ASH	5	LJS	SHA	1698	0.000	1.000
	1699	BSH	5	LJS	SHB	1699	0.000	1.000
	1700	ASH	5	LJS	SHA	1700	0.000	1.000
	1701	ASH	5	LJS	SHA	1701	0.000	1.000
	1702	ASH	5	LJS	SHA	1702	0.000	1.000
	1703	ASH	5	LJS	SHA	1703	0.000	1.000
	1704	ASH	5	LJS	SHA	1704	0.000	1.000
	1705	ASH	5	LJS	SHA	1705	0.000	1.000
	1706	ASH	5	LJS	SHA	1706	0.000	1.000
	1707	ASH	5	LJS	SHA	1707	0.000	1.000
	1708	ASH	5	LJS	SHA	1708	0.000	1.000
	1709	ASH	5	LJS	SHA	1709	0.000	1.000
	1710	ASH	5	LJS	SHA	1710	0.000	1.000
	1711	BSH	5	LJS	SHB	1711	0.000	1.000
	1712	ASH	5	LJS	SHA	1712	0.000	1.000
	1713	ASH	5	LJS	SHA	1713	0.000	1.000
	1714	ASH	5	LJS	SHA	1714	0.000	1.000
	1715	ASH	5	LJS	SHA	1715	0.000	1.000
	1716	ASH	5	LJS	SHA	1716	0.000	1.000
	1717	ASH	5	LJS	SHA	1717	0.000	1.000
	1718	ASH	5	LJS	SHA	1718	0.000	1.000
	1719	ASH	5	LJS	SHA	1719	0.000	1.000
	1720	BSH	5	LJS	SHB	1720	0.000	1.000
	1721	ASH	5	LJS	SHA	1721	0.000	1.000
	1722	ASH	5	LJS	SHA	1722	0.000	1.000
	1723	ASH	5	LJS	SHA	1723	0.000	1.000
	1724	ASH	5	LJS	SHA	1724	0.000	1.000
	1725	ASH	5	LJS	SHA	1725	0.000	1.000
	1726	ASH	5	LJS	SHA	1726	0.000	1.000
	1727	ASH	5	LJS	SHA	1727	0.000	1.000
	1728	ASH	5	LJS	SHA	1728	0.000	1.000
	1729	BSH	5	LJS	SHB	1729	0.000	1.000
	1730	ASH	5	LJS	SHA	1730	0.000	1.000
	1731	ASH	5	LJS	SHA	1731	0.000	1.000
	1732	ASH	5	LJS	SHA	1732	0.000	1.000
	1733	ASH	5	LJS	SHA	1733	0.000	1.000
	1734	ASH	5	LJS	SHA	1734	0.000	1.000
	1735	ASH	5	LJS	SHA	1735	0.000	1.000
	1736	ASH	5	LJS	SHA	1736	0.000	1.000
	1737	ASH	5	LJS	SHA	1737	0.000	1.000
	1738	ASH	5	LJS	SHA	1738	0.000	1.000
	1739	ASH	5	LJS	SHA	1739	0.000	1.000
	1740	ASH	5	LJS	SHA	1740	0.000	1.000
	1741	ASH	5	LJS	SHA	1741	0.000	1.000
	1742	BSH	5	LJS	SHB	1742	0.000	1.000
	1743	ASH	5	LJS	SHA	1743	0.000	1.000
	1744	ASH	5	LJS	SHA	1744	0.000	1.000
	1745	ASH	5	LJS	SHA	1745	0.000	1.000
	1746	ASH	5	LJS	SHA	1746	0.000	1.000
	1747	ASH	5	LJS	SHA	1747	0.000	1.000
	1748	ASH	5	LJS	SHA	1748	0.000	1.000
	1749	ASH	5	LJS	SHA	1749	0.000	1.000
	1750	ASH	5	LJS	SHA	1750	0.000	1.000
	1751	ASH	5	LJS	SHA	1751	0.000	1.000
	1752	ASH	5	LJS	SHA	1752	0.000	1.000
	1753	ASH	5	LJS	SHA	1753	0.000	1.000
	1754	ASH	5	LJS	SHA	1754	0.000	1.000
	1755	BSH	5	LJS	SHB	1755	0.000	1.000
	1756	ASH	5	LJS	SHA	1756	0.000	1.000
	1757	ASH	5	LJS	SHA	1757	0.000	1.000
	1758	BSH	5	LJS	SHB	1758	0.000	1.000
	1759	ASH	5	LJS	SHA	1759	0.000	1.000
	1760	ASH	5	LJS	SHA	1760	0.000	1.000
	1761	ASH	5	LJS	SHA	1761	0.000	1.000
	1762	ASH	5	LJS	SHA	1762	0.000	1.000
	1763	ASH	5	LJS	SHA	1763	0.000	1.000
	1764	ASH	5	LJS	SHA	1764	0.000	1.000
	1765	ASH	5	LJS	SHA	1765	0.000	1.000
	1766	BSH	5	LJS	SHB	1766	0.000	1.000
	1767	BSH	5	LJS	SHB	1767	0.000	1.000
	1768	ASH	5	LJS	SHA	1768	0.000	1.000
	1769	ASH	5	LJS	SHA	1769	0.000	1.000
	1770	ASH	5	LJS	SHA	1770	0.000	1.000
	1771	ASH	5	LJS	SHA	1771	0.000	1.000
	1772	ASH	5	LJS	SHA	1772	0.000	1.000
	1773	ASH	5	LJS	SHA	1773	0.000	1.000
	1774	ASH	5	LJS	SHA	1774	0.000	1.000
	1775	ASH	5	LJS	SHA	1775	0.000	1.000
	1776	ASH	5	LJS	SHA	1776	0.000	1.000
	1777	ASH	5	LJS	SHA	1777	0.000	1.000
	1778	ASH	5	LJS	SHA	1778	0.000	1.000
	1779	BSH	5	LJS	SHB	1779	0.000	1.000
	1780	ASH	5	LJS	SHA	1780	0.000	1.000
	1781	ASH	5	LJS	SHA	1781	0.000	1.000
	1782	ASH	5	LJS	SHA	1782	0.000	1.000
	1783	ASH	5	LJS	SHA	1783	0.000	1.000
	1784	ASH	5	LJS	SHA	1784	0.000	1.000
	1785	ASH	5	LJS	SHA	1785	0.000	1.000
	1786	BSH	5	LJS	SHB	1786	0.000	1.000
	1787	BSH	5	LJS	SHB	1787	0.000	1.000
	1788	ASH	5	LJS	SHA	1788	0.000	1.000
	1789	ASH	5	LJS	SHA	1789	0.000	1.000
	1790	ASH	5	LJS	SHA	1790	0.000	1.000
	1791	ASH	5	LJS	SHA	1791	0.000	1.000
	1792	BSH	5	LJS	SHB	1792	0.000	1.000
	1793	ASH	5	LJS	SHA	1793	0.000	1.000
	1794	ASH	5	LJS	SHA	1794	0.000	1.000
	1795	ASH	5	LJS	SHA	1795	0.000	1.000
	1796	ASH	5	LJS	SHA	1796	0.000	1.000
	1797	ASH	5	LJS	SHA	1797	0.000	1.000
	1798	ASH	5	LJS	SHA	1798	0.000	1.000
	1799	ASH	5	LJS	SHA	1799	0.000	1.000
	1800	ASH	5	LJS	SHA	1800	0.000	1.000
	1801	ASH	5	LJS	SHA	1801	0.000	1.000
	1802	ASH	5	LJS	SHA	1802	0.000	1.000
	1803	ASH	5	LJS	SHA	1803	0.000	1.000
	1804	ASH	5	LJS	SHA	1804	0.000	1.000
	1805	BSH	5	LJS	SHB	1805	0.000	1.000
	1806	BSH	5	LJS	SHB	1806	0.000	1.000
	1807	BSH	5	LJS	SHB	1807	0.000	1.000
	1808	ASH	5	LJS	SHA	1808	0.000	1.000
	1809	ASH	5	LJS	SHA	1809	0.000	1.000
	1810	ASH	5	LJS	SHA	1810	0.000	1.000
	1811	ASH	5	LJS	SHA	1811	0.000	1.000
	1812	BSH	5	LJS	SHB	1812	0.000	1.000
	1813	BSH	5	LJS	SHB	1813	0.000	1.000
	1814	ASH	5	LJS	SHA	1814	0.000	1.000
	1815	ASH	5	LJS	SHA	1815	0.000	1.000
	1816	ASH	5	LJS	SHA	1816	0.000	1.000
	1817	ASH	5	LJS	SHA	1817	0.000	1.000
	1818	ASH	5	LJS	SHA	1818	0.000	1.000
	1819	BSH	5	LJS	SHB	1819	0.000	1.000
	1820	ASH	5	LJS	SHA	1820	0.000	1.000
	1821	ASH	5	LJS	SHA	1821	0.000	1.000
	1822	ASH	5	LJS	SHA	1822	0.000	1.000
	1823	ASH	5	LJS	SHA	1823	0.000	1.000
	1824	ASH	5	LJS	SHA	1824	0.000	1.000
	1825	ASH	5	LJS	SHA	1825	0.000	1.000
	1826	ASH	5	LJS	SHA	1826	0.000	1.000
	1827	ASH	5	LJS	SHA	1827	0.000	1.000
	1828	BSH	5	LJS	SHB	1828	0.000	1.000
	1829	BSH	5	LJS	SHB	1829	0.000	1.000
	1830	ASH	5	LJS	SHA	1830	0.000	1.000
	1831	ASH	5	LJS	SHA	1831	0.000	1.000
	1832	BSH	5	LJS	SHB	1832	0.000	1.000
	1833	ASH	5	LJS	SHA	1833	0.000	1.000
	1834	ASH	5	LJS	SHA	1834	0.000	1.000
	1835	ASH	5	LJS	SHA	1835	0.000	1.000
	1836	ASH	5	LJS	SHA	1836	0.000	1.000
	1837	ASH	5	LJS	SHA	1837	0.000	1.000
	1838	ASH	5	LJS	SHA	1838	0.000	1.000
	1839	ASH	5	LJS	SHA	1839	0.000	1.000
	1840	ASH	5	LJS	SHA	1840	0.000	1.000
	1841	ASH	5	LJS	SHA	1841	0.000	1.000
	1842	ASH	5	LJS	SHA	1842	0.000	1.000
	1843	ASH	5	LJS	SHA	1843	0.000	1.000
	1844	BSH	5	LJS	SHB	1844	0.000	1.000
	1845	ASH	5	LJS	SHA	1845	0.000	1.000
	1846	ASH	5	LJS	SHA	1846	0.000	1.000
	1847	ASH	5	LJS	SHA	1847	0.000	1.000
	1848	BSH	5	LJS	SHB	1848	0.000	1.000
	1849	ASH	5	LJS	SHA	1849	0.000	1.000
	1850	ASH	5	LJS	SHA	1850	0.000	1.000
	1851	BSH	5	LJS	SHB	1851	0.000	1.000
	1852	BSH	5	LJS	SHB	1852	0.000	1.000
	1853	ASH	5	LJS	SHA	1853	0.000	1.000
	1854	BSH	5	LJS	SHB	1854	0.000	1.000
	1855	ASH	5	LJS	SHA	1855	0.000	1.000
	1856	ASH	5	LJS	SHA	1856	0.000	1.000
	1857	ASH	5	LJS	SHA	1857	0.000	1.000
	1858	BSH	5	LJS	SHB	1858	0.000	1.000
	1859	BSH	5	LJS	SHB	1859	0.000	1.000
	1860	ASH	5	LJS	SHA	1860	0.000	1.000
	1861	ASH	5	LJS	SHA	1861	0.000	1.000
	1862	ASH	5	LJS	SHA	1862	0.000	1.000
	1863	ASH	5	LJS	SHA	1863	0.000	1.000
	1864	BSH	5	LJS	SHB	1864	0.000	1.000
	1865	ASH	5	LJS	SHA	1865	0.000	1.000
	1866	ASH	5	LJS	SHA	1866	0.000	1.000
	1867	ASH	5	LJS	SHA	1867	0.000	1.000
	1868	ASH	5	LJS	SHA	1868	0.000	1.000
	1869	ASH	5	LJS	SHA	1869	0.000	1.000
	1870	ASH	5	LJS	SHA	1870	0.000	1.000
	1871	ASH	5	LJS	SHA	1871	0.000	1.000
	1872	ASH	5	LJS	SHA	1872	0.000	1.000
	1873	ASH	5	LJS	SHA	1873	0.000	1.000
	1874	BSH	5	LJS	SHB	1874	0.000	1.000
	1875	ASH	5	LJS	SHA	1875	0.000	1.000
	1876	ASH	5	LJS	SHA	1876	0.000	1.000
	1877	BSH	5	LJS	SHB	1877	0.000	1.000
	1878	BSH	5	LJS	SHB	1878	0.000	1.000
	1879	BSH	5	LJS	SHB	1879	0.000	1.000
	1880	ASH	5	LJS	SHA	1880	0.000	1.000
	1881	ASH	5	LJS	SHA	1881	0.000	1.000
	1882	BSH	5	LJS	SHB	1882	0.000	1.000
	1883	ASH	5	LJS	SHA	1883	0.000	1.000
	1884	ASH	5	LJS	SHA	1884	0.000	1.000
	1885	ASH	5	LJS	SHA	1885	0.000	1.000
	1886	ASH	5	LJS	SHA	1886	0.000	1.000
	1887	ASH	5	LJS	SHA	1887	0.000	1.000
	1888	ASH	5	LJS	SHA	1888	0.000	1.000
	1889	ASH	5	LJS	SHA	1889	0.000	1.000
	1890	ASH	5	LJS	SHA	1890	0.000	1.000
	1891	BSH	5	LJS	SHB	1891	0.000	1.000
	1892	BSH	5	LJS	SHB	1892	0.000	1.000
	1893	BSH	5	LJS	SHB	1893	0.000	1.000
	1894	BSH	5	LJS	SHB	1894	0.000	1.000
	1895	ASH	5	LJS	SHA	1895	0.000	1.000
	1896	ASH	5	LJS	SHA	1896	0.000	1.000
	1897	BSH	5	LJS	SHB	1897	0.000	1.000
	1898	ASH	5	LJS	SHA	1898	0.000	1.000
	1899	BSH	5	LJS	SHB	1899	0.000	1.000
	1900	BSH	5	LJS	SHB	1900	0.000	1.000
	1901	ASH	5	LJS	SHA	1901	0.000	1.000
	1902	ASH	5	LJS	SHA	1902	0.000	1.000
	1903	ASH	5	LJS	SHA	1903	0.000	1.000
	1904	ASH	5	LJS	SHA	1904	0.000	1.000
	1905	ASH	5	LJS	SHA	1905	0.000	1.000
	1906	ASH	5	LJS	SHA	1906	0.000	1.000
	1907	ASH	5	LJS	SHA	1907	0.000	1.000
	1908	ASH	5	LJS	SHA	1908	0.000	1.000
	1909	ASH	5	LJS	SHA	1909	0.000	1.000
	1910	ASH	5	LJS	SHA	1910	0.000	1.000
	1911	ASH	5	LJS	SHA	1911	0.000	1.000
	1912	BSH	5	LJS	SHB	1912	0.000	1.000
	1913	BSH	5	LJS	SHB	1913	0.000	1.000
	1914	BSH	5	LJS	SHB	1914	0.000	1.000
	1915	BSH	5	LJS	SHB	1915	0.000	1.000
	1916	BSH	5	LJS	SHB	1916	0.000	1.000
	1917	BSH	5	LJS	SHB	1917	0.000	1.000
	1918	BSH	5	LJS	SHB	1918	0.000	1.000
	1919	BSH	5	LJS	SHB	1919	0.000	1.000
	1920	BSH	5	LJS	SHB	1920	0.000	1.000
	1921	ASH	5	LJS	SHA	1921	0.000	1.000
	1922	ASH	5	LJS	SHA	1922	0.000	1.000
	1923	ASH	5	LJS	SHA	1923	0.000	1.000
	1924	ASH	5	LJS	SHA	1924	0.000	1.000
	1925	ASH	5	LJS	SHA	1925	0.000	1.000
	1926	ASH	5	LJS	SHA	1926	0.000	1.000
	1927	ASH	5	LJS	SHA	1927	0.000	1.000
	1928	ASH	5	LJS	SHA	1928	0.000	1.000
	1929	ASH	5	LJS	SHA	1929	0.000	1.000
	1930	ASH	5	LJS	SHA	1930	0.000	1.000
	1931	BSH	5	LJS	SHB	1931	0.000	1.000
	1932	BSH	5	LJS	SHB	1932	0.000	1.000
	1933	BSH	5	LJS	SHB	1933	0.000	1.000
	1934	BSH	5	LJS	SHB	1934	0.000	1.000
	1935	BSH	5	LJS	SHB	1935	0.000	1.000
	1936	BSH	5	LJS	SHB	1936	0.000	1.000
	1937	BSH	5	LJS	SHB	1937	0.000	1.000
	1938	BSH	5	LJS	SHB	1938	0.000	1.000
	1939	BSH	5	LJS	SHB	1939	0.000	1.000
	1940	ASH	5	LJS	SHA	1940	0.000	1.000
	1941	ASH	5	LJS	SHA	1941	0.000	1.000
	1942	BSH	5	LJS	SHB	1942	0.000	1.000
	1943	ASH	5	LJS	SHA	1943	0.000	1.000
	1944	ASH	5	LJS	SHA	1944	0.000	1.000
	1945	ASH	5	LJS	SHA	1945	0.000	1.000
	1946	ASH	5	LJS	SHA	1946	0.000	1.000
	1947	ASH	5	LJS	SHA	1947	0.000	1.000
	1948	ASH	5	LJS	SHA	1948	0.000	1.000
	1949	ASH	5	LJS	SHA	1949	0.000	1.000
	1950	ASH	5	LJS	SHA	1950	0.000	1.000
	1951	ASH	5	LJS	SHA	1951	0.000	1.000
	1952	ASH	5	LJS	SHA	1952	0.000	1.000
	1953	BSH	5	LJS	SHB	1953	0.000	1.000
	1954	BSH	5	LJS	SHB	1954	0.000	1.000
	1955	BSH	5	LJS	SHB	1955	0.000	1.000
	1956	BSH	5	LJS	SHB	1956	0.000	1.000
	1957	ASH	5	LJS	SHA	1957	0.000	1.000
	1958	ASH	5	LJS	SHA	1958	0.000	1.000
	1959	BSH	5	LJS	SHB	1959	0.000	1.000
	1960	ASH	5	LJS	SHA	1960	0.000	1.000
	1961	ASH	5	LJS	SHA	1961	0.000	1.000
	1962	BSH	5	LJS	SHB	1962	0.000	1.000
	1963	ASH	5	LJS	SHA	1963	0.000	1.000
	1964	ASH	5	LJS	SHA	1964	0.000	1.000
	1965	ASH	5	LJS	SHA	1965	0.000	1.000
	1966	ASH	5	LJS	SHA	1966	0.000	1.000
	1967	ASH	5	LJS	SHA	1967	0.000	1.000
	1968	ASH	5	LJS	SHA	1968	0.000	1.000
	1969	ASH	5	LJS	SHA	1969	0.000	1.000
	1970	ASH	5	LJS	SHA	1970	0.000	1.000
	1971	ASH	5	LJS	SHA	1971	0.000	1.000
	1972	ASH	5	LJS	SHA	1972	0.000	1.000
	1973	ASH	5	LJS	SHA	1973	0.000	1.000
	1974	BSH	5	LJS	SHB	1974	0.000	1.000
	1975	BSH	5	LJS	SHB	1975	0.000	1.000
	1976	ASH	5	LJS	SHA	1976	0.000	1.000
	1977	ASH	5	LJS	SHA	1977	0.000	1.000
	1978	ASH	5	LJS	SHA	1978	0.000	1.000
	1979	ASH	5	LJS	SHA	1979	0.000	1.000
	1980	BSH	5	LJS	SHB	1980	0.000	1.000
	1981	ASH	5	LJS	SHA	1981	0.000	1.000
	1982	ASH	5	LJS	SHA	1982	0.000	1.000
	1983	ASH	5	LJS	SHA	1983	0.000	1.000
	1984	ASH	5	LJS	SHA	1984	0.000	1.000
	1985	ASH	5	LJS	SHA	1985	0.000	1.000
	1986	ASH	5	LJS	SHA	1986	0.000	1.000
	1987	ASH	5	LJS	SHA	1987	0.000	1.000
	1988	ASH	5	LJS	SHA	1988	0.000	1.000
	1989	ASH	5	LJS	SHA	1989	0.000	1.000
	1990	ASH	5	LJS	SHA	1990	0.000	1.000
	1991	ASH	5	LJS	SHA	1991	0.000	1.000
	1992	ASH	5	LJS	SHA	1992	0.000	1.000
	1993	ASH	5	LJS	SHA	1993	0.000	1.000
	1994	BSH	5	LJS	SHB	1994	0.000	1.000
	1995	BSH	5	LJS	SHB	1995	0.000	1.000
	1996	ASH	5	LJS	SHA	1996	0.000	1.000
	1997	ASH	5	LJS	SHA	1997	0.000	1.000
	1998	ASH	5	LJS	SHA	1998	0.000	1.000
	1999	ASH	5	LJS	SHA	1999	0.000	1.000
	2000	ASH	5	LJS	SHA	2000	0.000	1.000
