Kremer-Grest polymer
40
    1KGP  CHB      1  -5.624  -0.288   0.000
    1KGP  CHA      2  -5.335   0.000   0.288
    1KGP  CHB      3  -5.047   0.288   0.000
    1KGP  CHA      4  -4.758   0.000  -0.288
    1KGP  CHB      5  -4.470  -0.288   0.000
    1KGP  CHA      6  -4.182   0.000   0.288
    1KGP  CHA      7  -3.893   0.288   0.000
    1KGP  CHB      8  -3.605   0.000  -0.288
    1KGP  CHA      9  -3.316  -0.288   0.000
    1KGP  CHA     10  -3.028   0.000   0.288
    1KGP  CHB     11  -2.740   0.288   0.000
    1KGP  CHB     12  -2.451   0.000  -0.288
    1KGP  CHA     13  -2.163  -0.288   0.000
    1KGP  CHA     14  -1.875   0.000   0.288
    1KGP  CHB     15  -1.586   0.288   0.000
    1KGP  CHB     16  -1.298   0.000  -0.288
    1KGP  CHA     17  -1.009  -0.288   0.000
    1KGP  CHA     18  -0.721   0.000   0.288
    1KGP  CHB     19  -0.433   0.288   0.000
    1KGP  CHB     20  -0.144   0.000  -0.288
    1KGP  CHB     21   0.144  -0.288   0.000
    1KGP  CHA     22   0.433   0.000   0.288
    1KGP  CHA     23   0.721   0.288   0.000
    1KGP  CHA     24   1.009   0.000  -0.288
    1KGP  CHB     25   1.298  -0.288   0.000
    1KGP  CHB     26   1.586   0.000   0.288
    1KGP  CHB     27   1.875   0.288   0.000
    1KGP  CHB     28   2.163   0.000  -0.288
    1KGP  CHB     29   2.451  -0.288   0.000
    1KGP  CHB     30   2.740   0.000   0.288
    1KGP  CHA     31   3.028   0.288   0.000
    1KGP  CHA     32   3.316   0.000  -0.288
    1KGP  CHA     33   3.605  -0.288   0.000
    1KGP  CHB     34   3.893   0.000   0.288
    1KGP  CHA     35   4.182   0.288   0.000
    1KGP  CHB     36   4.470   0.000  -0.288
    1KGP  CHB     37   4.758  -0.288   0.000
    1KGP  CHA     38   5.047   0.000   0.288
    1KGP  CHB     39   5.335   0.288   0.000
    1KGP  CHB     40   5.624   0.000  -0.288
     9.624     9.624     9.624
