[ moleculetype ]
; Name nrexcl
KGP 1

[ atoms ]
; nr type resnr resid atom cgnr charge mass
    1 CHA   1 KGP   ACH       1    0.000    1.000
    2 CHB   1 KGP   BCH       2    0.000    1.000
    3 CHB   1 KGP   BCH       3    0.000    1.000
    4 CHA   1 KGP   ACH       4    0.000    1.000
    5 CHB   1 KGP   BCH       5    0.000    1.000
    6 CHA   1 KGP   ACH       6    0.000    1.000
    7 CHB   1 KGP   BCH       7    0.000    1.000
    8 CHB   1 KGP   BCH       8    0.000    1.000
    9 CHB   1 KGP   BCH       9    0.000    1.000
   10 CHB   1 KGP   BCH      10    0.000    1.000
   11 CHB   1 KGP   BCH      11    0.000    1.000
   12 CHB   1 KGP   BCH      12    0.000    1.000
   13 CHA   1 KGP   ACH      13    0.000    1.000
   14 CHB   1 KGP   BCH      14    0.000    1.000
   15 CHB   1 KGP   BCH      15    0.000    1.000
   16 CHB   1 KGP   BCH      16    0.000    1.000
   17 CHA   1 KGP   ACH      17    0.000    1.000
   18 CHA   1 KGP   ACH      18    0.000    1.000
   19 CHB   1 KGP   BCH      19    0.000    1.000
   20 CHB   1 KGP   BCH      20    0.000    1.000
   21 CHB   1 KGP   BCH      21    0.000    1.000
   22 CHA   1 KGP   ACH      22    0.000    1.000
   23 CHB   1 KGP   BCH      23    0.000    1.000
   24 CHB   1 KGP   BCH      24    0.000    1.000
   25 CHB   1 KGP   BCH      25    0.000    1.000
   26 CHB   1 KGP   BCH      26    0.000    1.000
   27 CHA   1 KGP   ACH      27    0.000    1.000
   28 CHB   1 KGP   BCH      28    0.000    1.000
   29 CHB   1 KGP   BCH      29    0.000    1.000
   30 CHA   1 KGP   ACH      30    0.000    1.000
   31 CHB   1 KGP   BCH      31    0.000    1.000
   32 CHB   1 KGP   BCH      32    0.000    1.000
   33 CHA   1 KGP   ACH      33    0.000    1.000
   34 CHA   1 KGP   ACH      34    0.000    1.000
   35 CHB   1 KGP   BCH      35    0.000    1.000
   36 CHB   1 KGP   BCH      36    0.000    1.000
   37 CHB   1 KGP   BCH      37    0.000    1.000
   38 CHB   1 KGP   BCH      38    0.000    1.000
   39 CHA   1 KGP   ACH      39    0.000    1.000
   40 CHA   1 KGP   ACH      40    0.000    1.000

[ bonds ]
; ai aj fu b kb
    1     2 7    1.500   30.000
    2     3 7    1.500   30.000
    3     4 7    1.500   30.000
    4     5 7    1.500   30.000
    5     6 7    1.500   30.000
    6     7 7    1.500   30.000
    7     8 7    1.500   30.000
    8     9 7    1.500   30.000
    9    10 7    1.500   30.000
   10    11 7    1.500   30.000
   11    12 7    1.500   30.000
   12    13 7    1.500   30.000
   13    14 7    1.500   30.000
   14    15 7    1.500   30.000
   15    16 7    1.500   30.000
   16    17 7    1.500   30.000
   17    18 7    1.500   30.000
   18    19 7    1.500   30.000
   19    20 7    1.500   30.000
   20    21 7    1.500   30.000
   21    22 7    1.500   30.000
   22    23 7    1.500   30.000
   23    24 7    1.500   30.000
   24    25 7    1.500   30.000
   25    26 7    1.500   30.000
   26    27 7    1.500   30.000
   27    28 7    1.500   30.000
   28    29 7    1.500   30.000
   29    30 7    1.500   30.000
   30    31 7    1.500   30.000
   31    32 7    1.500   30.000
   32    33 7    1.500   30.000
   33    34 7    1.500   30.000
   34    35 7    1.500   30.000
   35    36 7    1.500   30.000
   36    37 7    1.500   30.000
   37    38 7    1.500   30.000
   38    39 7    1.500   30.000
   39    40 7    1.500   30.000
